/*--------------------------------*- C++ -*----------------------------------*\
| =========                 |                                                 |
| \\      /  F ield         | OpenFOAM: The Open Source CFD Toolbox           |
|  \\    /   O peration     | Version:  v1806                                 |
|   \\  /    A nd           | Web:      www.OpenFOAM.com                      |
|    \\/     M anipulation  |                                                 |
\*---------------------------------------------------------------------------*/
FoamFile
{
    version     2.0;
    format      ascii;
    class       volScalarField;
    location    "10000";
    object      k_DNS;
}
// * * * * * * * * * * * * * * * * * * * * * * * * * * * * * * * * * * * * * //

dimensions      [0 2 -2 0 0 0 0];


internalField   nonuniform List<scalar> 
1025
(
2.99865e-07
2.39963e-06
6.30916e-06
1.19916e-05
2.00242e-05
2.97692e-05
3.98636e-05
5.52019e-05
7.06124e-05
8.60953e-05
0.000106387
0.000129174
0.000152068
0.000175071
0.000201527
0.000233527
0.000265679
0.000297981
0.000330436
0.000365757
0.000408847
0.000452141
0.000495638
0.000539341
0.00058325
0.000631698
0.000687807
0.00074418
0.000800818
0.000857721
0.000914896
0.000972335
0.00104002
0.0011111
0.00118252
0.00125427
0.00132636
0.00139878
0.00147156
0.00155197
0.00163949
0.00172744
0.0018158
0.00190457
0.00199376
0.00208337
0.00217341
0.00227411
0.00237957
0.00248553
0.00259199
0.00269895
0.00280641
0.00291437
0.00302284
0.00313739
0.00326117
0.00338552
0.00351045
0.00363598
0.0037621
0.00388881
0.00401612
0.00414402
0.00428081
0.00442286
0.00456558
0.00470897
0.00485303
0.00499778
0.00514321
0.00528932
0.0054361
0.00558901
0.0057475
0.00590672
0.00606671
0.00622745
0.00638895
0.0065512
0.00671422
0.006878
0.00704321
0.0072149
0.0073874
0.00756071
0.00773483
0.00790977
0.00808555
0.00826215
0.00843957
0.00861782
0.00879748
0.00897875
0.00916088
0.00934387
0.00952771
0.00971241
0.00989799
0.0100844
0.0102718
0.01046
0.0106467
0.0108322
0.0110187
0.011206
0.0113942
0.0115833
0.0117732
0.0119641
0.0121559
0.0123485
0.0125369
0.0127211
0.0129061
0.0130921
0.0132789
0.0134666
0.0136551
0.0138446
0.014035
0.0142262
0.0144126
0.01459
0.0147682
0.0149473
0.0151271
0.0153079
0.0154895
0.0156719
0.0158552
0.0160394
0.0162215
0.0163873
0.0165539
0.0167213
0.0168894
0.0170584
0.0172281
0.0173986
0.01757
0.0177421
0.0179151
0.0180685
0.0182197
0.0183717
0.0185244
0.0186777
0.0188319
0.0189867
0.0191423
0.0192986
0.0194556
0.0195985
0.019732
0.0198661
0.0200008
0.0201361
0.0202721
0.0204087
0.0205459
0.0206838
0.0208224
0.0209534
0.0210677
0.0211826
0.0212981
0.0214141
0.0215306
0.0216476
0.0217652
0.0218835
0.0220023
0.0221195
0.0222145
0.0223101
0.022406
0.0225024
0.0225993
0.0226966
0.0227943
0.0228925
0.0229912
0.0230903
0.0231692
0.0232459
0.023323
0.0234004
0.0234781
0.0235562
0.0236348
0.0237136
0.0237929
0.0238725
0.0239363
0.0239954
0.0240547
0.0241143
0.0241742
0.0242343
0.0242948
0.0243555
0.0244165
0.0244778
0.024526
0.0245689
0.0246121
0.0246554
0.024699
0.0247427
0.0247867
0.0248308
0.0248752
0.0249198
0.0249524
0.0249809
0.0250096
0.0250384
0.0250673
0.0250964
0.0251257
0.025155
0.0251845
0.0252142
0.0252317
0.0252476
0.0252636
0.0252797
0.0252958
0.0253121
0.0253284
0.0253448
0.0253612
0.0253764
0.0253814
0.0253864
0.0253915
0.0253965
0.0254016
0.0254068
0.0254119
0.0254171
0.0254223
0.025423
0.0254188
0.0254146
0.0254103
0.025406
0.0254017
0.0253974
0.0253931
0.0253887
0.0253843
0.0253728
0.0253609
0.0253488
0.0253367
0.0253246
0.0253124
0.0253001
0.0252878
0.0252755
0.02526
0.0252417
0.0252233
0.0252048
0.0251863
0.0251676
0.0251489
0.0251301
0.0251111
0.0250911
0.0250677
0.0250442
0.0250206
0.0249969
0.0249731
0.0249492
0.0249251
0.0249009
0.0248764
0.024849
0.0248215
0.0247939
0.0247661
0.0247382
0.0247101
0.024682
0.0246537
0.0246252
0.0245947
0.0245641
0.0245333
0.0245024
0.0244714
0.0244402
0.0244089
0.0243774
0.0243457
0.0243129
0.02428
0.024247
0.0242138
0.0241804
0.0241469
0.0241132
0.0240794
0.0240454
0.0240111
0.0239766
0.0239419
0.0239071
0.0238721
0.023837
0.0238017
0.0237662
0.0237309
0.0236955
0.02366
0.0236243
0.0235884
0.0235524
0.0235162
0.0234798
0.0234434
0.0234076
0.0233717
0.0233356
0.0232993
0.0232629
0.0232263
0.0231895
0.0231525
0.0231163
0.0230803
0.0230442
0.0230079
0.0229714
0.0229347
0.0228979
0.0228609
0.0228244
0.0227887
0.0227527
0.0227167
0.0226804
0.022644
0.0226074
0.0225707
0.0225342
0.0224989
0.0224634
0.0224278
0.022392
0.022356
0.0223199
0.0222836
0.0222475
0.0222128
0.022178
0.022143
0.0221078
0.0220725
0.0220369
0.0220013
0.021966
0.021932
0.0218979
0.0218636
0.0218292
0.0217946
0.0217599
0.0217249
0.0216908
0.0216577
0.0216244
0.021591
0.0215574
0.0215236
0.0214897
0.0214556
0.021423
0.0213908
0.0213584
0.0213258
0.0212931
0.0212602
0.0212272
0.0211944
0.0211633
0.0211319
0.0211005
0.0210688
0.021037
0.0210051
0.020973
0.0209423
0.020912
0.0208816
0.020851
0.0208203
0.0207895
0.0207585
0.020728
0.0206988
0.0206694
0.0206398
0.0206102
0.0205804
0.0205504
0.0205205
0.0204922
0.0204638
0.0204353
0.0204066
0.0203778
0.0203489
0.0203199
0.0202924
0.020265
0.0202374
0.0202097
0.0201819
0.0201539
0.0201258
0.0200992
0.0200726
0.0200459
0.0200191
0.0199922
0.0199652
0.019938
0.0199122
0.0198865
0.0198606
0.0198346
0.0198085
0.0197823
0.0197561
0.0197312
0.0197062
0.0196811
0.0196558
0.0196305
0.019605
0.0195799
0.0195557
0.0195314
0.0195069
0.0194824
0.0194577
0.0194329
0.0194089
0.0193853
0.0193616
0.0193378
0.0193138
0.0192898
0.0192657
0.0192427
0.0192197
0.0191965
0.0191733
0.0191499
0.0191264
0.0191036
0.0190811
0.0190586
0.019036
0.0190132
0.0189904
0.0189677
0.0189459
0.0189239
0.0189019
0.0188798
0.0188576
0.0188352
0.0188138
0.0187925
0.0187711
0.0187495
0.0187279
0.0187061
0.018685
0.0186642
0.0186433
0.0186223
0.0186012
0.01858
0.0185593
0.0185389
0.0185185
0.018498
0.0184773
0.0184566
0.0184362
0.0184163
0.0183963
0.0183761
0.0183559
0.0183356
0.0183156
0.018296
0.0182764
0.0182566
0.0182367
0.0182167
0.0181972
0.0181779
0.0181585
0.018139
0.0181195
0.0180998
0.0180806
0.0180616
0.0180425
0.0180233
0.0180039
0.0179845
0.0179658
0.017947
0.0179281
0.0179091
0.01789
0.0178711
0.0178526
0.017834
0.0178153
0.0177965
0.0177776
0.0177591
0.0177407
0.0177223
0.0177037
0.0176851
0.0176665
0.0176483
0.01763
0.0176116
0.0175932
0.0175747
0.0175565
0.0175384
0.0175202
0.0175019
0.0174835
0.0174652
0.0174472
0.0174292
0.017411
0.0173928
0.0173744
0.0173566
0.0173386
0.0173206
0.0173025
0.0172843
0.0172664
0.0172485
0.0172306
0.0172126
0.0171945
0.0171766
0.0171588
0.017141
0.0171231
0.0171051
0.0170872
0.0170696
0.0170518
0.017034
0.0170161
0.0169982
0.0169806
0.016963
0.0169452
0.0169274
0.0169095
0.016892
0.0168743
0.0168566
0.0168387
0.016821
0.0168034
0.0167857
0.016768
0.0167502
0.0167324
0.0167148
0.0166971
0.0166793
0.0166614
0.0166437
0.016626
0.0166083
0.0165904
0.0165725
0.0165548
0.016537
0.0165192
0.0165013
0.0164833
0.0164656
0.0164478
0.0164298
0.0164118
0.0163938
0.016376
0.0163581
0.01634
0.0163219
0.0163039
0.0162859
0.0162678
0.0162497
0.0162315
0.0162134
0.0161952
0.016177
0.0161587
0.0161404
0.0161222
0.0161039
0.0160855
0.0160671
0.0160488
0.0160304
0.016012
0.0159935
0.015975
0.0159565
0.015938
0.0159194
0.0159008
0.0158822
0.0158636
0.015845
0.0158262
0.0158076
0.0157889
0.0157701
0.0157513
0.0157325
0.0157138
0.0156949
0.015676
0.015657
0.0156382
0.0156193
0.0156002
0.0155811
0.0155622
0.0155431
0.015524
0.0155048
0.0154857
0.0154665
0.0154472
0.0154279
0.0154086
0.0153892
0.0153698
0.0153502
0.0153307
0.0153112
0.0152915
0.0152718
0.0152521
0.0152323
0.0152125
0.0151926
0.0151727
0.0151527
0.0151327
0.0151125
0.0150924
0.0150722
0.015052
0.0150316
0.0150113
0.0149909
0.0149703
0.0149497
0.0149291
0.0149085
0.0148877
0.0148668
0.014846
0.0148251
0.014804
0.0147829
0.0147618
0.0147406
0.0147193
0.014698
0.0146767
0.0146553
0.0146337
0.0146122
0.0145906
0.014569
0.0145472
0.0145255
0.0145036
0.0144817
0.0144597
0.0144376
0.0144155
0.0143933
0.014371
0.0143486
0.0143262
0.0143036
0.0142811
0.0142584
0.0142356
0.0142128
0.01419
0.014167
0.0141439
0.0141208
0.0140976
0.0140744
0.014051
0.0140277
0.0140043
0.0139807
0.0139572
0.0139335
0.0139098
0.013886
0.0138622
0.0138383
0.0138142
0.0137902
0.0137661
0.0137418
0.0137176
0.0136933
0.0136689
0.0136444
0.0136199
0.0135953
0.0135705
0.0135458
0.013521
0.013496
0.013471
0.0134459
0.0134206
0.0133953
0.0133698
0.0133442
0.0133186
0.0132928
0.0132668
0.0132408
0.0132146
0.0131883
0.0131619
0.0131354
0.0131088
0.013082
0.0130551
0.0130282
0.013001
0.0129739
0.0129466
0.0129192
0.0128917
0.0128641
0.0128365
0.0128087
0.012781
0.0127531
0.0127251
0.0126971
0.012669
0.0126408
0.0126127
0.0125843
0.012556
0.0125276
0.0124991
0.0124705
0.0124419
0.0124131
0.0123843
0.0123554
0.0123264
0.0122973
0.0122682
0.0122389
0.0122095
0.01218
0.0121504
0.0121207
0.0120909
0.012061
0.0120309
0.0120008
0.0119705
0.0119401
0.0119096
0.011879
0.0118483
0.0118174
0.0117865
0.0117554
0.0117242
0.0116929
0.0116614
0.0116299
0.0115982
0.0115663
0.0115344
0.0115023
0.0114701
0.0114378
0.0114054
0.0113729
0.0113403
0.0113077
0.0112749
0.0112421
0.0112091
0.011176
0.0111429
0.0111096
0.0110762
0.0110426
0.0110089
0.0109751
0.0109411
0.010907
0.0108728
0.0108384
0.0108039
0.0107693
0.0107347
0.0106999
0.010665
0.0106301
0.0105951
0.01056
0.0105248
0.0104894
0.010454
0.0104185
0.0103828
0.0103469
0.0103109
0.0102747
0.0102384
0.010202
0.0101653
0.0101285
0.0100916
0.0100545
0.0100173
0.00997993
0.0099424
0.00990473
0.00986689
0.00982898
0.00979089
0.00975273
0.00971447
0.00967609
0.00963769
0.00959912
0.00956062
0.00952195
0.00948327
0.00944449
0.00940561
0.00936668
0.00932758
0.0092884
0.00924905
0.00920963
0.00917005
0.00913038
0.0090906
0.0090507
0.00901073
0.0089706
0.00893038
0.00888997
0.00884939
0.00880863
0.00876768
0.00872653
0.0086852
0.00864368
0.00860202
0.00856018
0.00851818
0.00847604
0.00843372
0.00839124
0.00834858
0.00830577
0.00826276
0.00821966
0.00817635
0.00813297
0.0080894
0.00804579
0.00800199
0.00795819
0.00791422
0.00787022
0.00782603
0.00778178
0.00773735
0.00769284
0.00764814
0.00760339
0.00755845
0.00751347
0.00746831
0.00742308
0.00737767
0.00733221
0.00728655
0.00724091
0.00719509
0.00714934
0.00710344
0.00705764
0.00701169
0.00696579
0.0069198
0.00687383
0.00682779
0.00678171
0.00673562
0.00668945
0.00664334
0.00659713
0.00655106
0.00650483
0.00645876
0.00641257
0.00636647
0.00632034
0.00627421
0.00622815
0.00618204
0.00613616
0.00609017
0.00604445
0.00599868
0.00595301
0.0059074
0.00586176
0.00581632
0.00577081
0.00572558
0.00568035
0.00563528
0.00559043
0.00554556
0.00550119
0.00545685
0.00541286
0.00536915
0.00532555
0.00528252
0.00523956
0.00519697
0.00515467
0.00511246
0.00507078
0.00502924
0.00498798
0.00494722
0.00490661
0.00486648
0.00482667
0.00478701
0.00474801
0.00470925
0.00467082
0.00463309
0.00459564
0.0045587
0.00452244
0.00448653
0.00445128
0.00441671
0.00438255
0.00434919
0.00431658
0.00428448
0.00425328
0.00422297
0.00419328
0.00416457
0.00413693
0.00410999
0.00408401
0.00405929
0.00403536
0.00401224
0.00399061
0.00396983
0.00394991
0.00393132
0.00391396
0.00389758
0.00388226
0.00386852
0.00385577
0.00384405
0.00383366
0.00382472
0.00381687
0.00381012
0.00380482
0.00380092
0.0037982
0.00379669
)
;

boundaryField
{
    INLET
    {
        type            cyclic;
    }
    OUTLET
    {
        type            cyclic;
    }
    CENTER
    {
        type            symmetryPlane;
    }
    WALL
    {
        type            calculated;
        value           uniform 2e-10;
    }
    frontAndBackPlanes
    {
        type            empty;
    }
}


// ************************************************************************* //
