/*--------------------------------*- C++ -*----------------------------------*\
| =========                 |                                                 |
| \\      /  F ield         | OpenFOAM: The Open Source CFD Toolbox           |
|  \\    /   O peration     | Version:  v1806                                 |
|   \\  /    A nd           | Web:      www.OpenFOAM.com                      |
|    \\/     M anipulation  |                                                 |
\*---------------------------------------------------------------------------*/
FoamFile
{
    version     2.0;
    format      ascii;
    class       volSymmTensorField;
    location    "10000";
    object      RS_DNS;
}
// * * * * * * * * * * * * * * * * * * * * * * * * * * * * * * * * * * * * * //

dimensions      [0 2 -2 0 0 0 0];


internalField   nonuniform List<symmTensor> 
1025
(
(2.09306e-07 -3.78978e-11 -7.72e-11 2.03268e-13 -1.67026e-15 9.05593e-08)
(1.67973e-06 -7.23204e-10 -6.22959e-10 8.41471e-12 -3.41705e-14 7.19898e-07)
(4.42856e-06 -2.99815e-09 -1.6509e-09 5.48053e-11 -1.50928e-13 1.88054e-06)
(8.43513e-06 -7.32041e-09 -3.15685e-09 1.58374e-10 -3.79818e-13 3.55629e-06)
(1.41322e-05 -1.66101e-08 -5.32018e-09 4.91767e-10 -9.14389e-13 5.89148e-06)
(2.1061e-05 -2.95091e-08 -7.96242e-09 9.92025e-10 -1.67102e-12 8.70727e-06)
(2.8245e-05 -4.35637e-08 -1.07062e-08 1.57056e-09 -2.50477e-12 1.16171e-05)
(3.92749e-05 -7.64366e-08 -1.49889e-08 3.45218e-09 -4.60219e-12 1.59236e-05)
(5.03567e-05 -1.09464e-07 -1.92918e-08 5.34266e-09 -6.70948e-12 2.02504e-05)
(6.14905e-05 -1.42647e-07 -2.36149e-08 7.24202e-09 -8.82667e-12 2.45976e-05)
(7.6239e-05 -2.03303e-07 -2.94299e-08 1.17506e-08 -1.28348e-11 3.01359e-05)
(9.28627e-05 -2.78093e-07 -3.60184e-08 1.75985e-08 -1.78152e-11 3.62938e-05)
(0.000109564 -3.53233e-07 -4.26377e-08 2.34739e-08 -2.2819e-11 4.24806e-05)
(0.000126345 -4.28727e-07 -4.92882e-08 2.93769e-08 -2.78464e-11 4.86966e-05)
(0.000145798 -5.33973e-07 -5.70749e-08 3.88766e-08 -3.47815e-11 5.56903e-05)
(0.000169544 -6.87339e-07 -6.6688e-08 5.42031e-08 -4.48015e-11 6.39296e-05)
(0.000193401 -8.41426e-07 -7.63464e-08 6.96016e-08 -5.48686e-11 7.22076e-05)
(0.000217372 -9.96241e-07 -8.60503e-08 8.50728e-08 -6.49832e-11 8.05247e-05)
(0.000241455 -1.15178e-06 -9.58e-08 1.00617e-07 -7.51454e-11 8.88809e-05)
(0.000267826 -1.34284e-06 -1.06546e-07 1.213e-07 -8.71547e-11 9.78091e-05)
(0.000300419 -1.6323e-06 -1.20009e-07 1.56283e-07 -1.04265e-10 0.000108273)
(0.000333164 -1.92312e-06 -1.33535e-07 1.91431e-07 -1.21456e-10 0.000118785)
(0.000366064 -2.21532e-06 -1.47125e-07 2.26744e-07 -1.38727e-10 0.000129347)
(0.000399119 -2.50889e-06 -1.60779e-07 2.62224e-07 -1.5608e-10 0.000139959)
(0.00043233 -2.80384e-06 -1.74498e-07 2.97871e-07 -1.73515e-10 0.000150621)
(0.000469297 -3.17821e-06 -1.89884e-07 3.46675e-07 -1.93571e-10 0.000162055)
(0.000512611 -3.68816e-06 -2.08092e-07 4.17989e-07 -2.18073e-10 0.000174778)
(0.00055613 -4.20052e-06 -2.26386e-07 4.89639e-07 -2.42692e-10 0.000187561)
(0.000599853 -4.71528e-06 -2.44765e-07 5.61626e-07 -2.67426e-10 0.000200404)
(0.00064378 -5.23246e-06 -2.63231e-07 6.3395e-07 -2.92276e-10 0.000213307)
(0.000687917 -5.75209e-06 -2.81785e-07 7.06618e-07 -3.17245e-10 0.000226272)
(0.000732258 -6.27414e-06 -3.00425e-07 7.79623e-07 -3.42329e-10 0.000239297)
(0.000785388 -7.04247e-06 -3.23007e-07 8.97743e-07 -3.69696e-10 0.000253732)
(0.000841422 -7.88974e-06 -3.46887e-07 1.03025e-06 -3.97864e-10 0.000268652)
(0.000897718 -8.74098e-06 -3.70879e-07 1.16337e-06 -4.26163e-10 0.000283642)
(0.000954275 -9.59617e-06 -3.94983e-07 1.29711e-06 -4.54594e-10 0.000298701)
(0.0010111 -1.04553e-05 -4.19198e-07 1.43148e-06 -4.83156e-10 0.000313831)
(0.00106818 -1.13186e-05 -4.43528e-07 1.56648e-06 -5.11854e-10 0.000329032)
(0.00112555 -1.21859e-05 -4.67975e-07 1.70212e-06 -5.4069e-10 0.000344306)
(0.00118967 -1.32931e-05 -4.95443e-07 1.88504e-06 -5.65904e-10 0.000360413)
(0.00126008 -1.46233e-05 -5.25725e-07 2.11192e-06 -5.87765e-10 0.000377297)
(0.00133083 -1.59599e-05 -5.56151e-07 2.33987e-06 -6.09729e-10 0.000394262)
(0.00140192 -1.73027e-05 -5.8672e-07 2.56889e-06 -6.31797e-10 0.000411307)
(0.00147334 -1.86519e-05 -6.17433e-07 2.799e-06 -6.53968e-10 0.000428432)
(0.00154509 -2.00074e-05 -6.4829e-07 3.03018e-06 -6.76243e-10 0.000445637)
(0.00161719 -2.13693e-05 -6.79294e-07 3.26246e-06 -6.98625e-10 0.000462925)
(0.00168962 -2.27377e-05 -7.10444e-07 3.49584e-06 -7.21112e-10 0.000480294)
(0.00177179 -2.45422e-05 -7.45878e-07 3.82082e-06 -7.27064e-10 0.000498507)
(0.00185826 -2.65347e-05 -7.83208e-07 4.18513e-06 -7.26095e-10 0.000517125)
(0.00194515 -2.85368e-05 -8.20716e-07 4.55118e-06 -7.25121e-10 0.000535832)
(0.00203245 -3.05483e-05 -8.58402e-07 4.91897e-06 -7.24143e-10 0.000554628)
(0.00212015 -3.25692e-05 -8.96263e-07 5.28847e-06 -7.2316e-10 0.000573511)
(0.00220827 -3.45996e-05 -9.34301e-07 5.6597e-06 -7.22173e-10 0.000592483)
(0.0022968 -3.66395e-05 -9.72519e-07 6.03267e-06 -7.21181e-10 0.000611544)
(0.00238574 -3.86889e-05 -1.01091e-06 6.40739e-06 -7.20184e-10 0.000630693)
(0.00248035 -4.10499e-05 -1.05173e-06 6.85147e-06 -7.01883e-10 0.000650192)
(0.00258359 -4.38929e-05 -1.09624e-06 7.40311e-06 -6.56488e-10 0.000670181)
(0.0026873 -4.67491e-05 -1.14095e-06 7.95729e-06 -6.10884e-10 0.000690262)
(0.0027915 -4.96186e-05 -1.18588e-06 8.51406e-06 -5.65067e-10 0.000710438)
(0.0028962 -5.25017e-05 -1.23101e-06 9.07348e-06 -5.19031e-10 0.000730709)
(0.00300138 -5.53985e-05 -1.27636e-06 9.63555e-06 -4.72778e-10 0.000751076)
(0.00310707 -5.8309e-05 -1.32192e-06 1.02003e-05 -4.26307e-10 0.000771539)
(0.00321325 -6.12331e-05 -1.3677e-06 1.07676e-05 -3.79618e-10 0.000792098)
(0.00331993 -6.41708e-05 -1.41369e-06 1.13376e-05 -3.32712e-10 0.000812753)
(0.00343512 -6.7715e-05 -1.46317e-06 1.20528e-05 -2.43255e-10 0.000833643)
(0.0035553 -7.16054e-05 -1.5147e-06 1.28504e-05 -1.29843e-10 0.000854709)
(0.00367606 -7.5514e-05 -1.56648e-06 1.36518e-05 -1.58982e-11 0.000875873)
(0.00379737 -7.94409e-05 -1.61849e-06 1.4457e-05 9.85789e-11 0.000897136)
(0.00391927 -8.33865e-05 -1.67076e-06 1.5266e-05 2.136e-10 0.0009185)
(0.00404174 -8.73507e-05 -1.72327e-06 1.60788e-05 3.29164e-10 0.000939965)
(0.00416478 -9.13336e-05 -1.77603e-06 1.68954e-05 4.45272e-10 0.000961531)
(0.0042884 -9.53351e-05 -1.82903e-06 1.77159e-05 5.61923e-10 0.000983198)
(0.0044126 -9.93552e-05 -1.88228e-06 1.85402e-05 6.79119e-10 0.00100497)
(0.00454277 -0.000103938 -1.93788e-06 1.95112e-05 8.41465e-10 0.00102673)
(0.00467838 -0.000109031 -1.99561e-06 2.06154e-05 1.0447e-09 0.0010485)
(0.00481463 -0.000114148 -2.05361e-06 2.17247e-05 1.24888e-09 0.00107037)
(0.00495153 -0.000119289 -2.11188e-06 2.28393e-05 1.45403e-09 0.00109234)
(0.00508907 -0.000124455 -2.17043e-06 2.39591e-05 1.66016e-09 0.00111442)
(0.00522726 -0.000129645 -2.22926e-06 2.50843e-05 1.86725e-09 0.0011366)
(0.0053661 -0.000134859 -2.28836e-06 2.62147e-05 2.07532e-09 0.00115889)
(0.00550559 -0.000140098 -2.34774e-06 2.73504e-05 2.28436e-09 0.00118128)
(0.00564574 -0.000145361 -2.4074e-06 2.84915e-05 2.49439e-09 0.00120378)
(0.00578722 -0.00015076 -2.4676e-06 2.96705e-05 2.71544e-09 0.00122632)
(0.0059353 -0.000157152 -2.53031e-06 3.11422e-05 3.02582e-09 0.00124845)
(0.00608409 -0.000163575 -2.59331e-06 3.26208e-05 3.33768e-09 0.00127069)
(0.00623357 -0.000170027 -2.65661e-06 3.41063e-05 3.651e-09 0.00129304)
(0.00638375 -0.000176511 -2.72021e-06 3.55988e-05 3.96578e-09 0.00131549)
(0.00653464 -0.000183024 -2.78411e-06 3.70983e-05 4.28205e-09 0.00133804)
(0.00668624 -0.000189568 -2.84831e-06 3.86049e-05 4.59982e-09 0.0013607)
(0.00683856 -0.000196144 -2.91281e-06 4.01187e-05 4.91909e-09 0.00138347)
(0.00699159 -0.00020275 -2.97761e-06 4.16394e-05 5.23984e-09 0.00140634)
(0.00714533 -0.000209387 -3.04272e-06 4.31673e-05 5.56209e-09 0.00142932)
(0.00730058 -0.000216498 -3.1085e-06 4.48569e-05 5.93021e-09 0.00145204)
(0.00745762 -0.000224243 -3.17509e-06 4.67638e-05 6.36014e-09 0.00147437)
(0.0076154 -0.000232025 -3.24199e-06 4.86797e-05 6.79211e-09 0.0014968)
(0.00777393 -0.000239843 -3.30921e-06 5.06046e-05 7.22613e-09 0.00151933)
(0.0079332 -0.000247699 -3.37675e-06 5.25386e-05 7.66217e-09 0.00154198)
(0.0080932 -0.00025559 -3.4446e-06 5.44815e-05 8.10024e-09 0.00156472)
(0.00825398 -0.00026352 -3.51277e-06 5.64338e-05 8.5404e-09 0.00158758)
(0.0084155 -0.000271486 -3.58126e-06 5.83951e-05 8.98262e-09 0.00161054)
(0.00857778 -0.00027949 -3.65007e-06 6.03656e-05 9.42691e-09 0.00163361)
(0.00874083 -0.000287531 -3.71921e-06 6.23454e-05 9.87329e-09 0.00165679)
(0.00890262 -0.000296113 -3.78827e-06 6.45541e-05 1.03755e-08 0.00167948)
(0.00906348 -0.000305151 -3.85732e-06 6.69552e-05 1.09247e-08 0.00170178)
(0.00922511 -0.000314232 -3.9267e-06 6.93676e-05 1.14765e-08 0.00172419)
(0.0093875 -0.000323355 -3.99641e-06 7.17914e-05 1.20308e-08 0.0017467)
(0.00955063 -0.000332521 -4.06644e-06 7.42264e-05 1.25878e-08 0.00176931)
(0.00971456 -0.000341731 -4.1368e-06 7.66731e-05 1.31474e-08 0.00179203)
(0.00987926 -0.000350984 -4.2075e-06 7.91314e-05 1.37096e-08 0.00181486)
(0.0100447 -0.00036028 -4.27853e-06 8.1601e-05 1.42745e-08 0.0018378)
(0.010211 -0.000369621 -4.34989e-06 8.40824e-05 1.4842e-08 0.00186084)
(0.010378 -0.000379005 -4.42158e-06 8.65753e-05 1.54122e-08 0.001884)
(0.0105409 -0.000388797 -4.49247e-06 8.93014e-05 1.60214e-08 0.00190662)
(0.0107001 -0.000398982 -4.5626e-06 9.22503e-05 1.66679e-08 0.00192873)
(0.01086 -0.000409214 -4.63306e-06 9.5213e-05 1.73174e-08 0.00195096)
(0.0110206 -0.000419494 -4.70385e-06 9.81896e-05 1.797e-08 0.00197328)
(0.011182 -0.000429823 -4.77498e-06 0.00010118 1.86257e-08 0.00199572)
(0.0113441 -0.0004402 -4.84644e-06 0.000104185 1.92844e-08 0.00201825)
(0.011507 -0.000450627 -4.91824e-06 0.000107204 1.99463e-08 0.0020409)
(0.0116707 -0.000461102 -4.99037e-06 0.000110237 2.06112e-08 0.00206365)
(0.0118352 -0.000471626 -5.06284e-06 0.000113284 2.12793e-08 0.0020865)
(0.0120004 -0.0004822 -5.13566e-06 0.000116346 2.19506e-08 0.00210947)
(0.012161 -0.000492985 -5.20748e-06 0.000119588 2.26286e-08 0.00213205)
(0.012313 -0.000504095 -5.27732e-06 0.000123131 2.33161e-08 0.00215388)
(0.0124657 -0.000515259 -5.3475e-06 0.000126691 2.40069e-08 0.00217581)
(0.0126191 -0.000526475 -5.418e-06 0.000130268 2.47009e-08 0.00219785)
(0.0127733 -0.000537743 -5.48883e-06 0.000133861 2.53982e-08 0.00221999)
(0.0129282 -0.000549063 -5.56e-06 0.000137471 2.60987e-08 0.00224224)
(0.0130838 -0.000560439 -5.6315e-06 0.000141098 2.68025e-08 0.00226459)
(0.0132401 -0.000571867 -5.70334e-06 0.000144743 2.75097e-08 0.00228705)
(0.0133972 -0.000583349 -5.77552e-06 0.000148404 2.82202e-08 0.00230961)
(0.013555 -0.000594884 -5.84803e-06 0.000152083 2.8934e-08 0.00233227)
(0.0137108 -0.000606493 -5.92017e-06 0.000155846 2.96382e-08 0.00235484)
(0.013851 -0.000618261 -5.98838e-06 0.000160022 3.02688e-08 0.00237632)
(0.0139918 -0.000630083 -6.05691e-06 0.000164217 3.09023e-08 0.00239789)
(0.0141333 -0.000641962 -6.12576e-06 0.000168432 3.15388e-08 0.00241956)
(0.0142754 -0.000653896 -6.19493e-06 0.000172667 3.21783e-08 0.00244134)
(0.0144182 -0.000665887 -6.26443e-06 0.000176922 3.28209e-08 0.00246322)
(0.0145617 -0.000677934 -6.33426e-06 0.000181198 3.34664e-08 0.0024852)
(0.0147059 -0.000690038 -6.40442e-06 0.000185493 3.4115e-08 0.00250729)
(0.0148507 -0.000702198 -6.4749e-06 0.000189808 3.47667e-08 0.00252948)
(0.0149962 -0.000714416 -6.54572e-06 0.000194144 3.54214e-08 0.00255177)
(0.0151424 -0.000726692 -6.61688e-06 0.0001985 3.60792e-08 0.00257417)
(0.0152698 -0.000738849 -6.68294e-06 0.000203282 3.65482e-08 0.00259541)
(0.015395 -0.000751039 -6.74856e-06 0.000208142 3.69928e-08 0.00261656)
(0.0155208 -0.000763286 -6.81449e-06 0.000213025 3.74395e-08 0.00263782)
(0.0156472 -0.000775591 -6.88072e-06 0.000217932 3.78883e-08 0.00265917)
(0.0157743 -0.000787953 -6.94727e-06 0.000222861 3.83391e-08 0.00268063)
(0.0159019 -0.000800375 -7.01414e-06 0.000227814 3.87922e-08 0.00270219)
(0.0160301 -0.000812854 -7.08131e-06 0.00023279 3.92473e-08 0.00272384)
(0.0161589 -0.000825392 -7.14881e-06 0.000237789 3.97046e-08 0.0027456)
(0.0162883 -0.000837989 -7.21662e-06 0.000242811 4.0164e-08 0.00276747)
(0.0164183 -0.000850645 -7.28475e-06 0.000247858 4.06256e-08 0.00278943)
(0.0165347 -0.00086306 -7.34898e-06 0.000253196 4.08838e-08 0.00281062)
(0.0166419 -0.000875329 -7.41063e-06 0.00025874 4.10035e-08 0.0028313)
(0.0167497 -0.000887654 -7.47258e-06 0.000264311 4.11238e-08 0.00285208)
(0.0168579 -0.000900038 -7.53482e-06 0.000269907 4.12446e-08 0.00287296)
(0.0169666 -0.000912479 -7.59735e-06 0.00027553 4.1366e-08 0.00289394)
(0.0170759 -0.00092498 -7.66017e-06 0.000281179 4.1488e-08 0.00291502)
(0.0171856 -0.000937539 -7.72329e-06 0.000286855 4.16105e-08 0.00293619)
(0.0172959 -0.000950158 -7.78671e-06 0.000292558 4.17337e-08 0.00295746)
(0.0174067 -0.000962836 -7.85043e-06 0.000298288 4.18574e-08 0.00297884)
(0.017518 -0.000975574 -7.91444e-06 0.000304044 4.19817e-08 0.00300032)
(0.017622 -0.000988122 -7.97631e-06 0.000309965 4.19699e-08 0.0030214)
(0.01771 -0.00100021 -8.03332e-06 0.0003162 4.16711e-08 0.00304155)
(0.0177984 -0.00101235 -8.09059e-06 0.000322465 4.13708e-08 0.0030618)
(0.0178872 -0.00102455 -8.14814e-06 0.00032876 4.10692e-08 0.00308214)
(0.0179764 -0.0010368 -8.20596e-06 0.000335084 4.07661e-08 0.00310258)
(0.018066 -0.00104912 -8.26405e-06 0.000341438 4.04616e-08 0.00312311)
(0.0181561 -0.00106149 -8.3224e-06 0.00034782 4.01558e-08 0.00314373)
(0.0182465 -0.00107391 -8.38102e-06 0.000354232 3.98485e-08 0.00316446)
(0.0183375 -0.00108641 -8.43997e-06 0.000360679 3.95396e-08 0.00318529)
(0.0184289 -0.00109896 -8.49918e-06 0.000367157 3.92291e-08 0.00320622)
(0.0185187 -0.00111148 -8.55803e-06 0.000373692 3.88848e-08 0.00322711)
(0.0185873 -0.00112316 -8.61014e-06 0.000380612 3.81685e-08 0.00324665)
(0.0186562 -0.0011349 -8.66253e-06 0.000387568 3.74485e-08 0.00326629)
(0.0187254 -0.00114669 -8.71516e-06 0.000394556 3.67251e-08 0.00328603)
(0.018795 -0.00115854 -8.76803e-06 0.000401576 3.59985e-08 0.00330585)
(0.0188648 -0.00117045 -8.82117e-06 0.000408632 3.52682e-08 0.00332577)
(0.0189351 -0.00118241 -8.87454e-06 0.000415719 3.45346e-08 0.00334578)
(0.0190056 -0.00119442 -8.92816e-06 0.000422839 3.37977e-08 0.00336589)
(0.0190764 -0.00120649 -8.98202e-06 0.00042999 3.30575e-08 0.00338608)
(0.0191476 -0.00121862 -9.03614e-06 0.000437177 3.23136e-08 0.00340637)
(0.0192192 -0.00123081 -9.09054e-06 0.0004444 3.1566e-08 0.00342677)
(0.0192715 -0.00124204 -9.13868e-06 0.000451953 3.05922e-08 0.00344581)
(0.0193216 -0.00125321 -9.18623e-06 0.000459582 2.95854e-08 0.00346476)
(0.0193719 -0.00126443 -9.23402e-06 0.000467248 2.85737e-08 0.00348381)
(0.0194225 -0.0012757 -9.28202e-06 0.000474947 2.75575e-08 0.00350294)
(0.0194733 -0.00128701 -9.33022e-06 0.00048268 2.6537e-08 0.00352215)
(0.0195243 -0.00129838 -9.37866e-06 0.00049045 2.55115e-08 0.00354146)
(0.0195756 -0.00130982 -9.42735e-06 0.000498262 2.44805e-08 0.00356087)
(0.0196272 -0.0013213 -9.47626e-06 0.000506107 2.34451e-08 0.00358036)
(0.0196789 -0.00133283 -9.52539e-06 0.00051399 2.24048e-08 0.00359994)
(0.0197309 -0.00134442 -9.57477e-06 0.00052191 2.13596e-08 0.00361962)
(0.0197681 -0.00135514 -9.61893e-06 0.000530076 2.03253e-08 0.00363812)
(0.0198007 -0.00136561 -9.66158e-06 0.000538348 1.92911e-08 0.0036563)
(0.0198335 -0.00137613 -9.70443e-06 0.000546657 1.82521e-08 0.00367457)
(0.0198664 -0.0013867 -9.74747e-06 0.000555006 1.72083e-08 0.00369292)
(0.0198994 -0.00139732 -9.79072e-06 0.000563393 1.61596e-08 0.00371136)
(0.0199326 -0.00140799 -9.83419e-06 0.000571824 1.51056e-08 0.00372989)
(0.019966 -0.00141871 -9.87784e-06 0.000580289 1.40472e-08 0.0037485)
(0.0199995 -0.00142947 -9.92168e-06 0.000588792 1.2984e-08 0.00376719)
(0.0200332 -0.00144029 -9.96575e-06 0.000597339 1.19154e-08 0.00378598)
(0.020067 -0.00145117 -1.001e-05 0.000605929 1.08414e-08 0.00380486)
(0.0200887 -0.00146119 -1.0049e-05 0.000614701 1.00046e-08 0.00382261)
(0.0201054 -0.0014709 -1.0086e-05 0.000623572 9.26385e-09 0.00383994)
(0.0201222 -0.00148066 -1.01231e-05 0.000632487 8.51944e-09 0.00385735)
(0.0201391 -0.00149045 -1.01603e-05 0.000641441 7.77172e-09 0.00387484)
(0.0201561 -0.0015003 -1.01978e-05 0.00065044 7.02031e-09 0.00389242)
(0.0201732 -0.00151019 -1.02354e-05 0.000659482 6.26523e-09 0.00391009)
(0.0201903 -0.00152013 -1.02732e-05 0.000668565 5.50683e-09 0.00392783)
(0.0202075 -0.00153012 -1.03112e-05 0.000677691 4.74476e-09 0.00394565)
(0.0202248 -0.00154014 -1.03494e-05 0.000686857 3.97937e-09 0.00396356)
(0.0202422 -0.00155022 -1.03877e-05 0.000696067 3.2103e-09 0.00398155)
(0.0202486 -0.00155942 -1.04191e-05 0.000705416 2.88957e-09 0.00399833)
(0.0202513 -0.00156833 -1.04482e-05 0.000714837 2.72169e-09 0.00401474)
(0.0202541 -0.00157728 -1.04775e-05 0.000724297 2.55308e-09 0.00403122)
(0.0202568 -0.00158628 -1.05069e-05 0.000733807 2.3836e-09 0.00404779)
(0.0202596 -0.00159532 -1.05364e-05 0.000743362 2.21333e-09 0.00406443)
(0.0202623 -0.0016044 -1.05661e-05 0.000752961 2.04226e-09 0.00408115)
(0.0202651 -0.00161353 -1.0596e-05 0.000762609 1.87032e-09 0.00409796)
(0.0202679 -0.0016227 -1.06259e-05 0.000772297 1.69766e-09 0.00411483)
(0.0202707 -0.00163191 -1.0656e-05 0.00078203 1.5242e-09 0.00413178)
(0.0202735 -0.00164116 -1.06863e-05 0.000791812 1.34987e-09 0.00414882)
(0.0202656 -0.00164939 -1.07057e-05 0.000801669 1.82098e-09 0.00416439)
(0.0202562 -0.00165751 -1.07237e-05 0.000811579 2.3816e-09 0.00417983)
(0.0202467 -0.00166567 -1.07417e-05 0.000821535 2.94475e-09 0.00419533)
(0.0202372 -0.00167387 -1.07599e-05 0.000831535 3.51044e-09 0.00421091)
(0.0202277 -0.0016821 -1.07782e-05 0.000841584 4.07891e-09 0.00422656)
(0.0202181 -0.00169038 -1.07965e-05 0.000851682 4.65017e-09 0.00424229)
(0.0202085 -0.00169869 -1.08149e-05 0.000861826 5.22396e-09 0.00425809)
(0.0201988 -0.00170704 -1.08334e-05 0.000872014 5.80029e-09 0.00427396)
(0.0201891 -0.00171544 -1.0852e-05 0.000882256 6.37967e-09 0.00428991)
(0.0201781 -0.00172373 -1.08688e-05 0.00089254 7.04995e-09 0.00430573)
(0.0201585 -0.00173105 -1.08717e-05 0.000902819 8.35445e-09 0.00432008)
(0.0201388 -0.0017384 -1.08746e-05 0.000913142 9.66461e-09 0.00433449)
(0.020119 -0.00174578 -1.08776e-05 0.000923515 1.0981e-08 0.00434897)
(0.0200991 -0.00175321 -1.08806e-05 0.000933941 1.23041e-08 0.00436352)
(0.0200791 -0.00176066 -1.08835e-05 0.000944416 1.36335e-08 0.00437815)
(0.020059 -0.00176816 -1.08865e-05 0.00095494 1.49691e-08 0.00439284)
(0.0200388 -0.00177568 -1.08895e-05 0.000965514 1.6311e-08 0.0044076)
(0.0200185 -0.00178325 -1.08926e-05 0.000976136 1.7659e-08 0.00442242)
(0.0199982 -0.00179084 -1.08956e-05 0.000986807 1.90133e-08 0.00443732)
(0.0199741 -0.00179797 -1.089e-05 0.000997461 2.0678e-08 0.00445148)
(0.019946 -0.00180456 -1.08748e-05 0.00100809 2.26878e-08 0.00446479)
(0.0199177 -0.00181118 -1.08596e-05 0.00101876 2.47068e-08 0.00447816)
(0.0198892 -0.00181784 -1.08443e-05 0.00102948 2.67357e-08 0.0044916)
(0.0198607 -0.00182453 -1.08289e-05 0.00104026 2.87737e-08 0.0045051)
(0.019832 -0.00183124 -1.08134e-05 0.00105108 3.08218e-08 0.00451867)
(0.0198032 -0.00183799 -1.07979e-05 0.00106196 3.2879e-08 0.0045323)
(0.0197742 -0.00184477 -1.07823e-05 0.00107288 3.49461e-08 0.00454599)
(0.0197451 -0.00185159 -1.07666e-05 0.00108386 3.70232e-08 0.00455975)
(0.0197159 -0.00185843 -1.07508e-05 0.00109489 3.91095e-08 0.00457357)
(0.0196812 -0.00186437 -1.07182e-05 0.00110575 4.1728e-08 0.00458588)
(0.0196461 -0.00187029 -1.06843e-05 0.00111665 4.43924e-08 0.00459815)
(0.0196108 -0.00187624 -1.06503e-05 0.00112759 4.70693e-08 0.00461048)
(0.0195753 -0.00188221 -1.06162e-05 0.00113859 4.97578e-08 0.00462287)
(0.0195397 -0.00188821 -1.05818e-05 0.00114964 5.24589e-08 0.00463531)
(0.0195039 -0.00189423 -1.05474e-05 0.00116074 5.51726e-08 0.00464781)
(0.0194679 -0.00190029 -1.05127e-05 0.00117189 5.78989e-08 0.00466037)
(0.0194318 -0.00190637 -1.04779e-05 0.00118309 6.06379e-08 0.00467299)
(0.0193954 -0.00191248 -1.04429e-05 0.00119435 6.33905e-08 0.00468567)
(0.0193569 -0.00191815 -1.04002e-05 0.00120549 6.6376e-08 0.00469755)
(0.0193164 -0.00192342 -1.03504e-05 0.00121653 6.95705e-08 0.00470873)
(0.0192757 -0.00192871 -1.03004e-05 0.00122762 7.27795e-08 0.00471996)
(0.0192348 -0.00193402 -1.02501e-05 0.00123876 7.6003e-08 0.00473124)
(0.0191937 -0.00193936 -1.01996e-05 0.00124995 7.92421e-08 0.00474258)
(0.0191524 -0.00194473 -1.01489e-05 0.00126119 8.2497e-08 0.00475397)
(0.019111 -0.00195012 -1.00979e-05 0.00127249 8.57664e-08 0.00476541)
(0.0190693 -0.00195554 -1.00468e-05 0.00128384 8.90515e-08 0.0047769)
(0.0190274 -0.00196098 -9.99531e-06 0.00129525 9.23523e-08 0.00478845)
(0.0189848 -0.00196625 -9.94127e-06 0.00130661 9.57095e-08 0.00479969)
(0.0189402 -0.00197093 -9.87951e-06 0.00131772 9.92123e-08 0.0048098)
(0.0188954 -0.00197562 -9.81748e-06 0.00132887 1.0273e-07 0.00481996)
(0.0188504 -0.00198034 -9.75516e-06 0.00134008 1.06265e-07 0.00483016)
(0.0188052 -0.00198508 -9.69252e-06 0.00135134 1.09817e-07 0.00484042)
(0.0187597 -0.00198985 -9.62959e-06 0.00136266 1.13386e-07 0.00485072)
(0.0187141 -0.00199464 -9.56638e-06 0.00137402 1.16972e-07 0.00486107)
(0.0186682 -0.00199945 -9.50284e-06 0.00138545 1.20575e-07 0.00487148)
(0.0186221 -0.00200428 -9.43902e-06 0.00139692 1.24195e-07 0.00488193)
(0.0185757 -0.00200908 -9.37449e-06 0.00140842 1.2782e-07 0.00489232)
(0.0185281 -0.00201322 -9.30438e-06 0.00141952 1.31319e-07 0.0049014)
(0.0184803 -0.00201739 -9.23392e-06 0.00143068 1.34835e-07 0.00491052)
(0.0184323 -0.00202157 -9.16314e-06 0.00144188 1.38366e-07 0.00491969)
(0.0183841 -0.00202577 -9.09205e-06 0.00145314 1.41914e-07 0.0049289)
(0.0183356 -0.00202999 -9.02062e-06 0.00146445 1.45479e-07 0.00493815)
(0.0182869 -0.00203423 -8.94884e-06 0.00147582 1.4906e-07 0.00494744)
(0.0182379 -0.00203849 -8.87672e-06 0.00148724 1.52659e-07 0.00495678)
(0.0181888 -0.00204278 -8.80427e-06 0.00149871 1.56275e-07 0.00496617)
(0.0181394 -0.00204706 -8.73139e-06 0.00151022 1.59891e-07 0.00497555)
(0.0180898 -0.00205072 -8.65592e-06 0.00152125 1.63034e-07 0.00498364)
(0.01804 -0.0020544 -8.5801e-06 0.00153234 1.66191e-07 0.00499177)
(0.0179899 -0.0020581 -8.50392e-06 0.00154347 1.69362e-07 0.00499994)
(0.0179396 -0.00206182 -8.42737e-06 0.00155466 1.7255e-07 0.00500814)
(0.0178891 -0.00206555 -8.35047e-06 0.00156591 1.75752e-07 0.00501639)
(0.0178383 -0.0020693 -8.27321e-06 0.0015772 1.78968e-07 0.00502467)
(0.0177873 -0.00207307 -8.19558e-06 0.00158855 1.82201e-07 0.00503299)
(0.0177361 -0.00207686 -8.11759e-06 0.00159995 1.85448e-07 0.00504135)
(0.0176847 -0.00208059 -8.03921e-06 0.00161134 1.88609e-07 0.0050496)
(0.0176339 -0.00208383 -7.96029e-06 0.00162224 1.9102e-07 0.00505674)
(0.0175829 -0.00208708 -7.88102e-06 0.0016332 1.93442e-07 0.00506392)
(0.0175317 -0.00209034 -7.80138e-06 0.0016442 1.95875e-07 0.00507113)
(0.0174801 -0.00209363 -7.72135e-06 0.00165526 1.9832e-07 0.00507838)
(0.0174284 -0.00209692 -7.64095e-06 0.00166637 2.00777e-07 0.00508566)
(0.0173764 -0.00210023 -7.56017e-06 0.00167754 2.03245e-07 0.00509297)
(0.0173242 -0.00210356 -7.47901e-06 0.00168875 2.05724e-07 0.00510032)
(0.0172717 -0.0021069 -7.39748e-06 0.00170002 2.08216e-07 0.00510771)
(0.0172195 -0.00211009 -7.31561e-06 0.00171113 2.10332e-07 0.00511473)
(0.0171682 -0.00211294 -7.23343e-06 0.00172185 2.11669e-07 0.00512097)
(0.0171167 -0.00211581 -7.15087e-06 0.00173262 2.13012e-07 0.00512725)
(0.0170649 -0.00211869 -7.06793e-06 0.00174344 2.14361e-07 0.00513355)
(0.0170129 -0.00212158 -6.98459e-06 0.00175431 2.15716e-07 0.00513989)
(0.0169606 -0.00212449 -6.90085e-06 0.00176524 2.17078e-07 0.00514625)
(0.0169081 -0.0021274 -6.81673e-06 0.00177621 2.18446e-07 0.00515265)
(0.0168554 -0.00213034 -6.73221e-06 0.00178724 2.19821e-07 0.00515907)
(0.0168024 -0.00213328 -6.64729e-06 0.00179832 2.21202e-07 0.00516553)
(0.0167506 -0.00213593 -6.56196e-06 0.00180898 2.21769e-07 0.00517127)
(0.0166994 -0.00213844 -6.47619e-06 0.00181947 2.21926e-07 0.00517666)
(0.0166479 -0.00214096 -6.39002e-06 0.00183001 2.22085e-07 0.00518208)
(0.0165961 -0.0021435 -6.30345e-06 0.0018406 2.22243e-07 0.00518753)
(0.0165442 -0.00214604 -6.21648e-06 0.00185124 2.22403e-07 0.005193)
(0.016492 -0.0021486 -6.1291e-06 0.00186193 2.22563e-07 0.0051985)
(0.0164395 -0.00215116 -6.04129e-06 0.00187266 2.22724e-07 0.00520402)
(0.0163868 -0.00215374 -5.95308e-06 0.00188345 2.22886e-07 0.00520957)
(0.0163342 -0.00215628 -5.86463e-06 0.0018942 2.22926e-07 0.00521501)
(0.0162837 -0.00215847 -5.77687e-06 0.00190436 2.22129e-07 0.00521958)
(0.0162329 -0.00216067 -5.68867e-06 0.00191458 2.21329e-07 0.00522418)
(0.016182 -0.00216288 -5.60008e-06 0.00192484 2.20525e-07 0.00522879)
(0.0161307 -0.0021651 -5.51107e-06 0.00193515 2.19718e-07 0.00523343)
(0.0160793 -0.00216733 -5.42162e-06 0.00194551 2.18906e-07 0.00523809)
(0.0160276 -0.00216958 -5.33176e-06 0.00195592 2.18091e-07 0.00524277)
(0.0159756 -0.00217183 -5.24149e-06 0.00196638 2.17272e-07 0.00524747)
(0.0159234 -0.00217409 -5.15076e-06 0.00197689 2.16448e-07 0.00525219)
(0.0158731 -0.0021761 -5.0619e-06 0.00198691 2.15292e-07 0.00525626)
(0.0158235 -0.00217801 -4.97352e-06 0.00199676 2.13999e-07 0.00526009)
(0.0157736 -0.00217994 -4.88471e-06 0.00200667 2.12699e-07 0.00526393)
(0.0157235 -0.00218187 -4.79547e-06 0.00201662 2.11393e-07 0.00526779)
(0.0156731 -0.00218381 -4.70582e-06 0.00202662 2.10081e-07 0.00527166)
(0.0156225 -0.00218576 -4.61574e-06 0.00203666 2.08763e-07 0.00527556)
(0.0155717 -0.00218772 -4.52523e-06 0.00204675 2.07439e-07 0.00527947)
(0.0155206 -0.00218969 -4.43431e-06 0.00205689 2.06108e-07 0.0052834)
(0.0154707 -0.00219152 -4.34426e-06 0.00206676 2.04761e-07 0.00528699)
(0.0154223 -0.00219318 -4.25555e-06 0.00207623 2.03393e-07 0.00529009)
(0.0153738 -0.00219484 -4.16643e-06 0.00208575 2.02018e-07 0.00529321)
(0.015325 -0.00219651 -4.07688e-06 0.00209531 2.00637e-07 0.00529634)
(0.015276 -0.00219819 -3.98692e-06 0.00210491 1.99249e-07 0.00529949)
(0.0152268 -0.00219988 -3.89652e-06 0.00211457 1.97855e-07 0.00530265)
(0.0151773 -0.00220157 -3.80571e-06 0.00212427 1.96455e-07 0.00530583)
(0.0151276 -0.00220328 -3.71447e-06 0.00213401 1.95047e-07 0.00530902)
(0.0150786 -0.00220491 -3.62295e-06 0.0021436 1.93663e-07 0.00531203)
(0.0150318 -0.00220634 -3.53142e-06 0.00215267 1.92358e-07 0.00531445)
(0.0149848 -0.00220777 -3.43946e-06 0.00216178 1.91047e-07 0.00531689)
(0.0149375 -0.00220921 -3.34708e-06 0.00217093 1.89729e-07 0.00531934)
(0.0148901 -0.00221065 -3.25427e-06 0.00218013 1.88406e-07 0.0053218)
(0.0148424 -0.0022121 -3.16102e-06 0.00218936 1.87076e-07 0.00532428)
(0.0147945 -0.00221356 -3.06733e-06 0.00219865 1.8574e-07 0.00532676)
(0.0147464 -0.00221502 -2.97318e-06 0.00220797 1.84398e-07 0.00532926)
(0.0146987 -0.00221644 -2.87819e-06 0.00221718 1.83087e-07 0.00533162)
(0.0146536 -0.00221765 -2.78124e-06 0.00222583 1.81913e-07 0.0053334)
(0.0146083 -0.00221887 -2.68384e-06 0.00223451 1.80733e-07 0.0053352)
(0.0145627 -0.0022201 -2.58597e-06 0.00224324 1.79548e-07 0.005337)
(0.014517 -0.00222133 -2.48764e-06 0.002252 1.78358e-07 0.00533882)
(0.014471 -0.00222257 -2.38886e-06 0.00226081 1.77162e-07 0.00534064)
(0.0144248 -0.00222381 -2.2896e-06 0.00226966 1.7596e-07 0.00534247)
(0.0143784 -0.00222506 -2.18988e-06 0.00227855 1.74752e-07 0.00534431)
(0.0143328 -0.00222625 -2.08965e-06 0.00228727 1.73723e-07 0.00534597)
(0.0142894 -0.00222728 -1.98883e-06 0.00229548 1.73165e-07 0.00534715)
(0.0142459 -0.00222831 -1.88754e-06 0.00230373 1.72605e-07 0.00534834)
(0.0142021 -0.00222935 -1.78576e-06 0.00231202 1.72043e-07 0.00534953)
(0.0141581 -0.00223039 -1.6835e-06 0.00232035 1.71477e-07 0.00535073)
(0.014114 -0.00223144 -1.58078e-06 0.00232871 1.70909e-07 0.00535193)
(0.0140696 -0.00223249 -1.47756e-06 0.00233712 1.70338e-07 0.00535314)
(0.014025 -0.00223354 -1.37385e-06 0.00234556 1.69765e-07 0.00535436)
(0.0139818 -0.00223451 -1.27262e-06 0.0023537 1.69924e-07 0.0053553)
(0.0139403 -0.00223537 -1.17438e-06 0.00236146 1.70931e-07 0.00535592)
(0.0138986 -0.00223623 -1.07567e-06 0.00236927 1.71942e-07 0.00535653)
(0.0138567 -0.00223709 -9.76494e-07 0.00237711 1.72959e-07 0.00535716)
(0.0138146 -0.00223796 -8.76858e-07 0.00238499 1.7398e-07 0.00535778)
(0.0137723 -0.00223883 -7.76736e-07 0.0023929 1.75006e-07 0.00535841)
(0.0137298 -0.00223971 -6.7615e-07 0.00240086 1.76037e-07 0.00535904)
(0.0136871 -0.00224059 -5.75101e-07 0.00240885 1.77073e-07 0.00535967)
(0.0136468 -0.00224134 -4.84688e-07 0.00241631 1.79919e-07 0.00535989)
(0.0136071 -0.00224204 -3.97247e-07 0.00242363 1.83331e-07 0.00535998)
(0.0135673 -0.00224274 -3.09389e-07 0.00243099 1.86759e-07 0.00536007)
(0.0135273 -0.00224345 -2.21134e-07 0.00243838 1.90203e-07 0.00536016)
(0.013487 -0.00224417 -1.32463e-07 0.0024458 1.93663e-07 0.00536025)
(0.0134466 -0.00224488 -4.33572e-08 0.00245327 1.9714e-07 0.00536034)
(0.013406 -0.0022456 4.6165e-08 0.00246076 2.00633e-07 0.00536043)
(0.0133658 -0.0022463 1.32614e-07 0.00246817 2.04501e-07 0.00536044)
(0.0133282 -0.00224686 2.03563e-07 0.00247501 2.10022e-07 0.00536003)
(0.0132904 -0.00224742 2.74839e-07 0.00248188 2.15567e-07 0.00535963)
(0.0132524 -0.00224799 3.46456e-07 0.00248879 2.2114e-07 0.00535922)
(0.0132143 -0.00224856 4.18415e-07 0.00249573 2.26739e-07 0.00535881)
(0.0131759 -0.00224913 4.90715e-07 0.00250271 2.32364e-07 0.0053584)
(0.0131374 -0.0022497 5.63358e-07 0.00250971 2.38016e-07 0.00535799)
(0.0130987 -0.00225028 6.36341e-07 0.00251675 2.43695e-07 0.00535757)
(0.0130621 -0.00225076 6.94495e-07 0.00252333 2.49824e-07 0.00535684)
(0.0130263 -0.00225119 7.4655e-07 0.00252974 2.56159e-07 0.00535597)
(0.0129903 -0.00225163 7.98847e-07 0.00253617 2.62524e-07 0.0053551)
(0.0129542 -0.00225207 8.51395e-07 0.00254263 2.68919e-07 0.00535422)
(0.0129178 -0.00225251 9.04196e-07 0.00254912 2.75345e-07 0.00535334)
(0.0128814 -0.00225295 9.57238e-07 0.00255565 2.818e-07 0.00535246)
(0.0128447 -0.0022534 1.01053e-06 0.0025622 2.88286e-07 0.00535157)
(0.0128089 -0.0022538 1.05633e-06 0.00256856 2.94611e-07 0.00535054)