/*--------------------------------*- C++ -*----------------------------------*\
| =========                 |                                                 |
| \\      /  F ield         | OpenFOAM: The Open Source CFD Toolbox           |
|  \\    /   O peration     | Version:  v1806                                 |
|   \\  /    A nd           | Web:      www.OpenFOAM.com                      |
|    \\/     M anipulation  |                                                 |
\*---------------------------------------------------------------------------*/
FoamFile
{
    version     2.0;
    format      ascii;
    class       volVectorField;
    location    "10000";
    object      U_DNS;
}
// * * * * * * * * * * * * * * * * * * * * * * * * * * * * * * * * * * * * * //

dimensions      [0 1 -1 0 0 0 0];


internalField   nonuniform List<vector> 
1025
(
(0.000964189 0 -6.93821e-08)
(0.00289704 0 -2.08472e-07)
(0.00483893 0 -3.48214e-07)
(0.00678988 0 -4.88609e-07)
(0.0087499 0 -6.29655e-07)
(0.0107191 0 -7.71359e-07)
(0.0126975 0 -9.1373e-07)
(0.014685 0 -1.05674e-06)
(0.0166818 0 -1.20042e-06)
(0.018688 0 -1.34477e-06)
(0.0207034 0 -1.48977e-06)
(0.0227281 0 -1.63542e-06)
(0.0247623 0 -1.78176e-06)
(0.0268061 0 -1.92879e-06)
(0.0288592 0 -2.07646e-06)
(0.0309214 0 -2.22477e-06)
(0.0329933 0 -2.37377e-06)
(0.035075 0 -2.52347e-06)
(0.0371665 0 -2.67388e-06)
(0.0392674 0 -2.82495e-06)
(0.0413771 0 -2.9766e-06)
(0.0434968 0 -3.12897e-06)
(0.0456264 0 -3.28205e-06)
(0.047766 0 -3.43586e-06)
(0.0499158 0 -3.59039e-06)
(0.0520747 0 -3.74556e-06)
(0.0542419 0 -3.90128e-06)
(0.0564193 0 -4.05774e-06)
(0.058607 0 -4.21494e-06)
(0.0608049 0 -4.37286e-06)
(0.0630133 0 -4.53155e-06)
(0.0652319 0 -4.69096e-06)
(0.0674572 0 -4.85083e-06)
(0.0696921 0 -5.01136e-06)
(0.0719375 0 -5.17265e-06)
(0.0741933 0 -5.33469e-06)
(0.0764595 0 -5.49748e-06)
(0.0787365 0 -5.66104e-06)
(0.0810244 0 -5.82539e-06)
(0.0833186 0 -5.99017e-06)
(0.0856195 0 -6.1554e-06)
(0.0879312 0 -6.32142e-06)
(0.0902539 0 -6.48822e-06)
(0.0925875 0 -6.65581e-06)
(0.094932 0 -6.82418e-06)
(0.0972877 0 -6.99335e-06)
(0.0996545 0 -7.16333e-06)
(0.102022 0 -7.33333e-06)
(0.104397 0 -7.50381e-06)
(0.106784 0 -7.67511e-06)
(0.109181 0 -7.84723e-06)
(0.11159 0 -8.02014e-06)
(0.11401 0 -8.19386e-06)
(0.116441 0 -8.3684e-06)
(0.118884 0 -8.54375e-06)
(0.12133 0 -8.71927e-06)
(0.123774 0 -8.89455e-06)
(0.12623 0 -9.07063e-06)
(0.128697 0 -9.24754e-06)
(0.131175 0 -9.42529e-06)
(0.133666 0 -9.60387e-06)
(0.136168 0 -9.78331e-06)
(0.138682 0 -9.96358e-06)
(0.141207 0 -1.01447e-05)
(0.143723 0 -1.03249e-05)
(0.14624 0 -1.05049e-05)
(0.148768 0 -1.06858e-05)
(0.151308 0 -1.08676e-05)
(0.15386 0 -1.10502e-05)
(0.156425 0 -1.12337e-05)
(0.159001 0 -1.1418e-05)
(0.161589 0 -1.16032e-05)
(0.16419 0 -1.17893e-05)
(0.166778 0 -1.19741e-05)
(0.169355 0 -1.21577e-05)
(0.171945 0 -1.23423e-05)
(0.174547 0 -1.25277e-05)
(0.177161 0 -1.2714e-05)
(0.179787 0 -1.29012e-05)
(0.182426 0 -1.30892e-05)
(0.185077 0 -1.32781e-05)
(0.187741 0 -1.34679e-05)
(0.190411 0 -1.36581e-05)
(0.193034 0 -1.38438e-05)
(0.195671 0 -1.40304e-05)
(0.198319 0 -1.42179e-05)
(0.20098 0 -1.44063e-05)
(0.203653 0 -1.45955e-05)
(0.20634 0 -1.47857e-05)
(0.209038 0 -1.49768e-05)
(0.21175 0 -1.51687e-05)
(0.214474 0 -1.53615e-05)
(0.217175 0 -1.55519e-05)
(0.219839 0 -1.57386e-05)
(0.222515 0 -1.59262e-05)
(0.225205 0 -1.61146e-05)
(0.227907 0 -1.63039e-05)
(0.230622 0 -1.64942e-05)
(0.233349 0 -1.66853e-05)
(0.23609 0 -1.68773e-05)
(0.238843 0 -1.70702e-05)
(0.241609 0 -1.7264e-05)
(0.244329 0 -1.7453e-05)
(0.247013 0 -1.76382e-05)
(0.249709 0 -1.78242e-05)
(0.252419 0 -1.80111e-05)
(0.255141 0 -1.81988e-05)
(0.257876 0 -1.83875e-05)
(0.260623 0 -1.8577e-05)
(0.263384 0 -1.87675e-05)
(0.266158 0 -1.89588e-05)
(0.268944 0 -1.9151e-05)
(0.271677 0 -1.93372e-05)
(0.274358 0 -1.95178e-05)
(0.277052 0 -1.96992e-05)
(0.279758 0 -1.98815e-05)
(0.282478 0 -2.00646e-05)
(0.28521 0 -2.02486e-05)
(0.287955 0 -2.04335e-05)
(0.290713 0 -2.06192e-05)
(0.293484 0 -2.08058e-05)
(0.296268 0 -2.09933e-05)
(0.299008 0 -2.11755e-05)
(0.301664 0 -2.1348e-05)
(0.304333 0 -2.15214e-05)
(0.307014 0 -2.16955e-05)
(0.309708 0 -2.18704e-05)
(0.312414 0 -2.20462e-05)
(0.315133 0 -2.22228e-05)
(0.317865 0 -2.24002e-05)
(0.320609 0 -2.25785e-05)
(0.323367 0 -2.27576e-05)
(0.326112 0 -2.29347e-05)
(0.328721 0 -2.30954e-05)
(0.331342 0 -2.3257e-05)
(0.333976 0 -2.34193e-05)
(0.336622 0 -2.35823e-05)
(0.33928 0 -2.37461e-05)
(0.341951 0 -2.39107e-05)
(0.344634 0 -2.40761e-05)
(0.34733 0 -2.42422e-05)
(0.350039 0 -2.44092e-05)
(0.35276 0 -2.45769e-05)
(0.355326 0 -2.47255e-05)
(0.35788 0 -2.48721e-05)
(0.360446 0 -2.50193e-05)
(0.363024 0 -2.51673e-05)
(0.365614 0 -2.53159e-05)
(0.368217 0 -2.54652e-05)
(0.370832 0 -2.56153e-05)
(0.373458 0 -2.5766e-05)
(0.376098 0 -2.59175e-05)
(0.37875 0 -2.60696e-05)
(0.381291 0 -2.62083e-05)
(0.383762 0 -2.6338e-05)
(0.386244 0 -2.64683e-05)
(0.388737 0 -2.65992e-05)
(0.391243 0 -2.67307e-05)
(0.39376 0 -2.68628e-05)
(0.396289 0 -2.69956e-05)
(0.39883 0 -2.71289e-05)
(0.401383 0 -2.72629e-05)
(0.403948 0 -2.73976e-05)
(0.406455 0 -2.75254e-05)
(0.408829 0 -2.76383e-05)
(0.411214 0 -2.77517e-05)
(0.41361 0 -2.78657e-05)
(0.416017 0 -2.79802e-05)
(0.418436 0 -2.80952e-05)
(0.420866 0 -2.82107e-05)
(0.423306 0 -2.83268e-05)
(0.425761 0 -2.84435e-05)
(0.428226 0 -2.85608e-05)
(0.430684 0 -2.86769e-05)
(0.432951 0 -2.87753e-05)
(0.43523 0 -2.88743e-05)
(0.437519 0 -2.89737e-05)
(0.439819 0 -2.90736e-05)
(0.442131 0 -2.91739e-05)
(0.444453 0 -2.92747e-05)
(0.446785 0 -2.9376e-05)
(0.449128 0 -2.94778e-05)
(0.451482 0 -2.958e-05)
(0.453849 0 -2.96827e-05)
(0.45603 0 -2.97727e-05)
(0.458196 0 -2.98614e-05)
(0.460374 0 -2.99505e-05)
(0.462561 0 -3.00401e-05)
(0.464758 0 -3.013e-05)
(0.466965 0 -3.02203e-05)
(0.469184 0 -3.03112e-05)
(0.471412 0 -3.04024e-05)
(0.473651 0 -3.04941e-05)
(0.475901 0 -3.05862e-05)
(0.477997 0 -3.06713e-05)
(0.480049 0 -3.07546e-05)
(0.482112 0 -3.08382e-05)
(0.484184 0 -3.09222e-05)
(0.486266 0 -3.10066e-05)
(0.488358 0 -3.10915e-05)
(0.490459 0 -3.11767e-05)
(0.492569 0 -3.12622e-05)
(0.494691 0 -3.13482e-05)
(0.496823 0 -3.14347e-05)
(0.498814 0 -3.15175e-05)
(0.500754 0 -3.15989e-05)
(0.502702 0 -3.16808e-05)
(0.50466 0 -3.1763e-05)
(0.506627 0 -3.18457e-05)
(0.508603 0 -3.19287e-05)
(0.510589 0 -3.20121e-05)
(0.512584 0 -3.20959e-05)
(0.514587 0 -3.21801e-05)
(0.516601 0 -3.22647e-05)
(0.518473 0 -3.23466e-05)
(0.520302 0 -3.24278e-05)
(0.522139 0 -3.25094e-05)
(0.523985 0 -3.25914e-05)
(0.525839 0 -3.26738e-05)
(0.527703 0 -3.27565e-05)
(0.529576 0 -3.28397e-05)
(0.531457 0 -3.29233e-05)
(0.533346 0 -3.30072e-05)
(0.535245 0 -3.30915e-05)
(0.536983 0 -3.3172e-05)
(0.538706 0 -3.32523e-05)
(0.540437 0 -3.33329e-05)
(0.542176 0 -3.34139e-05)
(0.543923 0 -3.34953e-05)
(0.545679 0 -3.35772e-05)
(0.547443 0 -3.36593e-05)
(0.549214 0 -3.37419e-05)
(0.550995 0 -3.38248e-05)
(0.552762 0 -3.39074e-05)
(0.554377 0 -3.39843e-05)
(0.555999 0 -3.40615e-05)
(0.557628 0 -3.41391e-05)
(0.559266 0 -3.42171e-05)
(0.560912 0 -3.42954e-05)
(0.562565 0 -3.43741e-05)
(0.564226 0 -3.44532e-05)
(0.565895 0 -3.45327e-05)
(0.567571 0 -3.46125e-05)
(0.569175 0 -3.46884e-05)
(0.570696 0 -3.47598e-05)
(0.572224 0 -3.48315e-05)
(0.57376 0 -3.49036e-05)
(0.575303 0 -3.4976e-05)
(0.576853 0 -3.50488e-05)
(0.57841 0 -3.51219e-05)
(0.579974 0 -3.51953e-05)
(0.581547 0 -3.52691e-05)
(0.583126 0 -3.53432e-05)
(0.584562 0 -3.54067e-05)
(0.585997 0 -3.54699e-05)
(0.587438 0 -3.55334e-05)
(0.588886 0 -3.55971e-05)
(0.59034 0 -3.56611e-05)
(0.591801 0 -3.57254e-05)
(0.593269 0 -3.57901e-05)
(0.594744 0 -3.5855e-05)
(0.596226 0 -3.59203e-05)
(0.597638 0 -3.59782e-05)
(0.598985 0 -3.60296e-05)
(0.600339 0 -3.60812e-05)
(0.601699 0 -3.61331e-05)
(0.603066 0 -3.61852e-05)
(0.604439 0 -3.62375e-05)
(0.605818 0 -3.62901e-05)
(0.607204 0 -3.6343e-05)
(0.608597 0 -3.63961e-05)
(0.609964 0 -3.64454e-05)
(0.611232 0 -3.6482e-05)
(0.612506 0 -3.65188e-05)
(0.613786 0 -3.65558e-05)
(0.615073 0 -3.65929e-05)
(0.616365 0 -3.66303e-05)
(0.617663 0 -3.66678e-05)
(0.618968 0 -3.67055e-05)
(0.620279 0 -3.67433e-05)
(0.621587 0 -3.678e-05)
(0.622783 0 -3.68001e-05)
(0.623985 0 -3.68203e-05)
(0.625193 0 -3.68405e-05)
(0.626406 0 -3.68609e-05)
(0.627624 0 -3.68813e-05)
(0.628849 0 -3.69018e-05)
(0.630079 0 -3.69225e-05)
(0.631316 0 -3.69432e-05)
(0.632554 0 -3.69635e-05)
(0.633685 0 -3.69669e-05)
(0.634821 0 -3.69704e-05)
(0.635962 0 -3.69739e-05)
(0.637109 0 -3.69773e-05)
(0.638262 0 -3.69808e-05)
(0.639419 0 -3.69844e-05)
(0.640582 0 -3.69879e-05)
(0.641751 0 -3.69915e-05)
(0.642913 0 -3.69933e-05)
(0.643984 0 -3.69817e-05)
(0.645061 0 -3.69701e-05)
(0.646143 0 -3.69584e-05)
(0.64723 0 -3.69467e-05)
(0.648322 0 -3.69349e-05)
(0.649419 0 -3.69231e-05)
(0.650521 0 -3.69112e-05)
(0.651629 0 -3.68993e-05)
(0.652708 0 -3.68841e-05)
(0.653727 0 -3.68625e-05)
(0.65475 0 -3.68408e-05)
(0.655778 0 -3.6819e-05)
(0.656811 0 -3.67971e-05)
(0.657848 0 -3.67751e-05)
(0.658891 0 -3.6753e-05)
(0.659938 0 -3.67308e-05)
(0.660991 0 -3.67085e-05)
(0.661987 0 -3.66872e-05)
(0.662957 0 -3.66664e-05)
(0.663932 0 -3.66455e-05)
(0.664912 0 -3.66245e-05)
(0.665896 0 -3.66033e-05)
(0.666885 0 -3.65821e-05)
(0.667878 0 -3.65608e-05)
(0.668876 0 -3.65394e-05)
(0.669868 0 -3.65201e-05)
(0.670791 0 -3.65161e-05)
(0.671719 0 -3.65121e-05)
(0.672651 0 -3.6508e-05)
(0.673587 0 -3.6504e-05)
(0.674528 0 -3.64999e-05)
(0.675473 0 -3.64958e-05)
(0.676422 0 -3.64916e-05)
(0.677376 0 -3.64875e-05)
(0.678279 0 -3.65067e-05)
(0.679164 0 -3.65354e-05)
(0.680053 0 -3.65643e-05)
(0.680946 0 -3.65932e-05)
(0.681844 0 -3.66223e-05)
(0.682745 0 -3.66516e-05)
(0.683652 0 -3.66809e-05)
(0.684562 0 -3.67105e-05)
(0.685446 0 -3.67584e-05)
(0.686293 0 -3.68312e-05)
(0.687144 0 -3.69044e-05)
(0.687999 0 -3.69779e-05)
(0.688858 0 -3.70517e-05)
(0.689722 0 -3.71259e-05)
(0.690589 0 -3.72005e-05)
(0.69146 0 -3.72754e-05)
(0.692319 0 -3.73637e-05)
(0.693132 0 -3.74905e-05)
(0.69395 0 -3.76178e-05)
(0.694771 0 -3.77457e-05)
(0.695596 0 -3.78742e-05)
(0.696425 0 -3.80033e-05)
(0.697258 0 -3.8133e-05)
(0.698095 0 -3.82633e-05)
(0.698923 0 -3.84066e-05)
(0.699707 0 -3.85971e-05)
(0.700495 0 -3.87886e-05)
(0.701287 0 -3.89809e-05)
(0.702082 0 -3.91742e-05)
(0.702881 0 -3.93684e-05)
(0.703683 0 -3.95635e-05)
(0.70449 0 -3.97595e-05)
(0.705284 0 -3.99726e-05)
(0.706042 0 -4.02288e-05)
(0.706804 0 -4.04863e-05)
(0.707569 0 -4.07449e-05)
(0.708338 0 -4.10048e-05)
(0.70911 0 -4.12658e-05)
(0.709887 0 -4.15281e-05)
(0.710666 0 -4.17917e-05)
(0.711426 0 -4.20759e-05)
(0.712161 0 -4.23837e-05)
(0.7129 0 -4.26929e-05)
(0.713642 0 -4.30037e-05)
(0.714388 0 -4.33158e-05)
(0.715137 0 -4.36295e-05)
(0.71589 0 -4.39447e-05)
(0.716646 0 -4.42613e-05)
(0.71737 0 -4.459e-05)
(0.718086 0 -4.49235e-05)
(0.718805 0 -4.52587e-05)
(0.719527 0 -4.55953e-05)
(0.720253 0 -4.59335e-05)
(0.720982 0 -4.62734e-05)
(0.721715 0 -4.66149e-05)
(0.722443 0 -4.69559e-05)
(0.723139 0 -4.72893e-05)
(0.723838 0 -4.76243e-05)
(0.72454 0 -4.79609e-05)
(0.725245 0 -4.8299e-05)
(0.725954 0 -4.86388e-05)
(0.726666 0 -4.89802e-05)
(0.727381 0 -4.93232e-05)
(0.728071 0 -4.96516e-05)
(0.728752 0 -4.99746e-05)
(0.729437 0 -5.02992e-05)
(0.730124 0 -5.06253e-05)
(0.730815 0 -5.0953e-05)
(0.731509 0 -5.12821e-05)
(0.732207 0 -5.16129e-05)
(0.732894 0 -5.19361e-05)
(0.73356 0 -5.22429e-05)
(0.734229 0 -5.25512e-05)
(0.734902 0 -5.28609e-05)
(0.735577 0 -5.31721e-05)
(0.736256 0 -5.34848e-05)
(0.736937 0 -5.37989e-05)
(0.73762 0 -5.41119e-05)
(0.738273 0 -5.4395e-05)
(0.738929 0 -5.46795e-05)
(0.739588 0 -5.49653e-05)
(0.74025 0 -5.52525e-05)
(0.740915 0 -5.5541e-05)
(0.741584 0 -5.58309e-05)
(0.742255 0 -5.61221e-05)
(0.7429 0 -5.63676e-05)
(0.743545 0 -5.66102e-05)
(0.744193 0 -5.68539e-05)
(0.744844 0 -5.70989e-05)
(0.745498 0 -5.73449e-05)
(0.746155 0 -5.75922e-05)
(0.746815 0 -5.78405e-05)
(0.747452 0 -5.80326e-05)
(0.748088 0 -5.82168e-05)
(0.748726 0 -5.84019e-05)
(0.749368 0 -5.85879e-05)
(0.750013 0 -5.87748e-05)
(0.75066 0 -5.89626e-05)
(0.751311 0 -5.91512e-05)
(0.751938 0 -5.92901e-05)
(0.752566 0 -5.94251e-05)
(0.753197 0 -5.95607e-05)
(0.753831 0 -5.9697e-05)
(0.754468 0 -5.98338e-05)
(0.755108 0 -5.99714e-05)
(0.755749 0 -6.0108e-05)
(0.756368 0 -6.02217e-05)
(0.75699 0 -6.03359e-05)
(0.757615 0 -6.04506e-05)
(0.758242 0 -6.05659e-05)
(0.758873 0 -6.06817e-05)
(0.759507 0 -6.0798e-05)
(0.760135 0 -6.09159e-05)
(0.76075 0 -6.10366e-05)
(0.761367 0 -6.11579e-05)
(0.761986 0 -6.12798e-05)
(0.762609 0 -6.14022e-05)
(0.763235 0 -6.15252e-05)
(0.763864 0 -6.16488e-05)
(0.76448 0 -6.17931e-05)
(0.765091 0 -6.19494e-05)
(0.765704 0 -6.21065e-05)
(0.76632 0 -6.22643e-05)
(0.766939 0 -6.24228e-05)
(0.767561 0 -6.25821e-05)
(0.768185 0 -6.27458e-05)
(0.76879 0 -6.29605e-05)
(0.769398 0 -6.31761e-05)
(0.770009 0 -6.33928e-05)
(0.770622 0 -6.36105e-05)
(0.771239 0 -6.38292e-05)
(0.771859 0 -6.4049e-05)
(0.772468 0 -6.43041e-05)
(0.773072 0 -6.45846e-05)
(0.773678 0 -6.48665e-05)
(0.774287 0 -6.51497e-05)
(0.774899 0 -6.54343e-05)
(0.775514 0 -6.57201e-05)
(0.776128 0 -6.60182e-05)
(0.776728 0 -6.63636e-05)
(0.777331 0 -6.67105e-05)
(0.777936 0 -6.70591e-05)
(0.778545 0 -6.74092e-05)
(0.779156 0 -6.77611e-05)
(0.77977 0 -6.81146e-05)
(0.780369 0 -6.85288e-05)
(0.780969 0 -6.89525e-05)
(0.781572 0 -6.93782e-05)
(0.782178 0 -6.98059e-05)
(0.782786 0 -7.02356e-05)
(0.783397 0 -7.06673e-05)
(0.783999 0 -7.11642e-05)
(0.784597 0 -7.16953e-05)
(0.785197 0 -7.22288e-05)
(0.785801 0 -7.27648e-05)
(0.786407 0 -7.33034e-05)
(0.787016 0 -7.38445e-05)
(0.787618 0 -7.44543e-05)
(0.788214 0 -7.51264e-05)
(0.788814 0 -7.58018e-05)
(0.789415 0 -7.64805e-05)
(0.79002 0 -7.71622e-05)
(0.790628 0 -7.78472e-05)
(0.79123 0 -7.85988e-05)
(0.791825 0 -7.94259e-05)
(0.792423 0 -8.02569e-05)
(0.793024 0 -8.10918e-05)
(0.793628 0 -8.19307e-05)
(0.794235 0 -8.27735e-05)
(0.794836 0 -8.36853e-05)
(0.79543 0 -8.46692e-05)
(0.796028 0 -8.56577e-05)
(0.796629 0 -8.66509e-05)
(0.797232 0 -8.76487e-05)
(0.797838 0 -8.86513e-05)
(0.798437 0 -8.97361e-05)
(0.799032 0 -9.08801e-05)
(0.79963 0 -9.20295e-05)
(0.800231 0 -9.31842e-05)
(0.800834 0 -9.43444e-05)
(0.80144 0 -9.551e-05)
(0.802037 0 -9.67714e-05)
(0.802632 0 -9.80663e-05)
(0.80323 0 -9.93674e-05)
(0.803832 0 -0.000100674)
(0.804435 0 -0.000101988)
(0.805042 0 -0.000103309)
(0.805636 0 -0.000104719)
(0.806232 0 -0.000106137)
(0.806831 0 -0.000107561)
(0.807433 0 -0.000108992)
(0.808038 0 -0.000110429)
(0.808641 0 -0.000111887)
(0.809236 0 -0.000113378)
(0.809833 0 -0.000114876)
(0.810434 0 -0.000116381)
(0.811037 0 -0.000117893)
(0.811644 0 -0.000119413)
(0.812242 0 -0.000120936)
(0.812838 0 -0.000122466)
(0.813438 0 -0.000124003)
(0.81404 0 -0.000125548)
(0.814645 0 -0.0001271)
(0.81525 0 -0.000128654)
(0.815846 0 -0.000130198)
(0.816445 0 -0.00013175)
(0.817047 0 -0.000133309)
(0.817651 0 -0.000134875)
(0.818258 0 -0.000136448)
(0.818858 0 -0.000138001)
(0.819456 0 -0.000139551)
(0.820057 0 -0.000141109)
(0.820661 0 -0.000142674)
(0.821268 0 -0.000144246)
(0.821873 0 -0.000145797)
(0.822472 0 -0.000147299)
(0.823073 0 -0.000148808)
(0.823677 0 -0.000150325)
(0.824283 0 -0.000151848)
(0.824893 0 -0.000153378)
(0.825492 0 -0.000154772)
(0.826093 0 -0.000156172)
(0.826697 0 -0.000157579)
(0.827304 0 -0.000158992)
(0.827914 0 -0.000160411)
(0.828517 0 -0.00016172)
(0.829119 0 -0.000162992)
(0.829723 0 -0.000164269)
(0.83033 0 -0.000165552)
(0.830941 0 -0.000166842)
(0.831547 0 -0.000168055)
(0.83215 0 -0.000169201)
(0.832756 0 -0.000170351)
(0.833364 0 -0.000171506)
(0.833975 0 -0.000172667)
(0.834584 0 -0.00017377)
(0.835188 0 -0.000174772)
(0.835794 0 -0.000175779)
(0.836403 0 -0.000176791)
(0.837016 0 -0.000177809)
(0.837627 0 -0.00017878)
(0.838232 0 -0.000179634)
(0.83884 0 -0.000180492)
(0.83945 0 -0.000181354)
(0.840064 0 -0.000182221)
(0.840677 0 -0.000183052)
(0.841283 0 -0.000183781)
(0.841893 0 -0.000184513)
(0.842505 0 -0.000185249)
(0.84312 0 -0.000185989)
(0.843734 0 -0.000186708)
(0.844342 0 -0.000187377)
(0.844953 0 -0.000188049)
(0.845567 0 -0.000188725)
(0.846184 0 -0.000189404)
(0.846799 0 -0.000190088)
(0.847409 0 -0.000190778)
(0.848021 0 -0.00019147)
(0.848637 0 -0.000192167)
(0.849256 0 -0.000192867)
(0.849871 0 -0.000193605)
(0.850483 0 -0.000194376)
(0.851098 0 -0.00019515)
(0.851716 0 -0.000195927)
(0.852337 0 -0.000196709)
(0.852952 0 -0.000197558)
(0.853566 0 -0.000198433)
(0.854183 0 -0.000199312)
(0.854804 0 -0.000200195)
(0.855427 0 -0.000201083)
(0.856041 0 -0.000202039)
(0.856658 0 -0.000203)
(0.857278 0 -0.000203965)
(0.857902 0 -0.000204935)
(0.858524 0 -0.000205903)
(0.859141 0 -0.000206863)
(0.85976 0 -0.000207827)
(0.860383 0 -0.000208797)
(0.861009 0 -0.00020977)
(0.861629 0 -0.000210636)
(0.862249 0 -0.000211452)
(0.862871 0 -0.000212271)
(0.863497 0 -0.000213094)
(0.864125 0 -0.000213894)
(0.864744 0 -0.000214403)
(0.865367 0 -0.000214913)
(0.865993 0 -0.000215427)
(0.866622 0 -0.000215943)
(0.867247 0 -0.000216233)
(0.867869 0 -0.000216336)
(0.868495 0 -0.000216439)
(0.869124 0 -0.000216542)
(0.869755 0 -0.000216624)
(0.870379 0 -0.000216335)
(0.871005 0 -0.000216045)
(0.871634 0 -0.000215753)
(0.872266 0 -0.00021546)
(0.872894 0 -0.000215004)
(0.873521 0 -0.000214443)
(0.874151 0 -0.000213881)
(0.874783 0 -0.000213316)
(0.875417 0 -0.000212726)
(0.876044 0 -0.000212058)
(0.876675 0 -0.000211387)
(0.877308 0 -0.000210712)
(0.877945 0 -0.000210035)
(0.878574 0 -0.000209381)
(0.879206 0 -0.000208728)
(0.87984 0 -0.000208072)
(0.880477 0 -0.000207413)
(0.88111 0 -0.000206813)
(0.881742 0 -0.000206258)
(0.882378 0 -0.0002057)
(0.883016 0 -0.000205139)
(0.883653 0 -0.000204617)
(0.884287 0 -0.000204181)
(0.884922 0 -0.000203744)
(0.885561 0 -0.000203305)
(0.886202 0 -0.000202873)
(0.886836 0 -0.000202525)
(0.887473 0 -0.000202174)
(0.888113 0 -0.000201823)
(0.888756 0 -0.000201469)
(0.889391 0 -0.000201128)
(0.890029 0 -0.000200786)
(0.890671 0 -0.000200442)
(0.891314 0 -0.000200097)
(0.891953 0 -0.000199711)
(0.892592 0 -0.000199313)
(0.893234 0 -0.000198912)
(0.89388 0 -0.00019851)
(0.89452 0 -0.000198106)
(0.895161 0 -0.000197699)
(0.895805 0 -0.000197291)
(0.896451 0 -0.00019688)
(0.897094 0 -0.000196546)
(0.897736 0 -0.000196251)
(0.898382 0 -0.000195955)
(0.89903 0 -0.000195657)
(0.899674 0 -0.000195487)
(0.900319 0 -0.000195383)
(0.900966 0 -0.000195278)
(0.901616 0 -0.000195173)
(0.902262 0 -0.000195208)
(0.902908 0 -0.000195306)
(0.903558 0 -0.000195404)
(0.904209 0 -0.000195503)
(0.904857 0 -0.000195741)
(0.905505 0 -0.000196023)
(0.906157 0 -0.000196306)
(0.906812 0 -0.00019659)
(0.90746 0 -0.000196991)
(0.908111 0 -0.00019741)
(0.908765 0 -0.000197831)
(0.909422 0 -0.000198256)
(0.910072 0 -0.000198739)
(0.910726 0 -0.000199225)
(0.911382 0 -0.000199713)
(0.91204 0 -0.0002002)
(0.912692 0 -0.000200681)
(0.913348 0 -0.000201164)
(0.914007 0 -0.000201649)
(0.914665 0 -0.00020212)
(0.915321 0 -0.000202573)
(0.915979 0 -0.000203027)
(0.916641 0 -0.000203484)
(0.917299 0 -0.000203936)
(0.917957 0 -0.000204385)
(0.918618 0 -0.000204837)
(0.919283 0 -0.00020529)
(0.919941 0 -0.000205807)
(0.920601 0 -0.000206326)
(0.921265 0 -0.000206848)
(0.921928 0 -0.000207423)
(0.922588 0 -0.000208111)
(0.923251 0 -0.000208803)
(0.923917 0 -0.000209497)
(0.924579 0 -0.000210387)
(0.925241 0 -0.000211373)
(0.925907 0 -0.000212363)
(0.926574 0 -0.000213387)
(0.927236 0 -0.000214786)
(0.9279 0 -0.000216192)
(0.928568 0 -0.000217604)
(0.929234 0 -0.00021923)
(0.929898 0 -0.00022107)
(0.930565 0 -0.00022292)
(0.931235 0 -0.000224779)
(0.931899 0 -0.000226956)
(0.932566 0 -0.000229156)
(0.933235 0 -0.000231365)
(0.933904 0 -0.000233656)
(0.93457 0 -0.000236042)
(0.935239 0 -0.000238438)
(0.935912 0 -0.000240846)
(0.936578 0 -0.000243242)
(0.937248 0 -0.000245648)
(0.93792 0 -0.000248064)
(0.938591 0 -0.000250375)
(0.93926 0 -0.000252597)
(0.939932 0 -0.000254828)
(0.940607 0 -0.000257023)
(0.941276 0 -0.000258889)
(0.941949 0 -0.000260764)
(0.942624 0 -0.000262648)
(0.943296 0 -0.000264179)
(0.943968 0 -0.000265592)
(0.944644 0 -0.000267011)
(0.945319 0 -0.00026826)
(0.945992 0 -0.000269233)
(0.946668 0 -0.000270211)
(0.947346 0 -0.000271175)
(0.948019 0 -0.000271876)
(0.948695 0 -0.00027258)
(0.949374 0 -0.000273287)
(0.950049 0 -0.000273904)
(0.950725 0 -0.000274497)
(0.951404 0 -0.000275092)
(0.952082 0 -0.000275641)
(0.952759 0 -0.000276146)
(0.953439 0 -0.000276653)
(0.954119 0 -0.000277118)
(0.954796 0 -0.00027746)
(0.955477 0 -0.000277805)
(0.95616 0 -0.000278142)
(0.956838 0 -0.000278333)
(0.95752 0 -0.000278525)
(0.958204 0 -0.000278718)
(0.958885 0 -0.000278848)
(0.959567 0 -0.000278968)
(0.960253 0 -0.000279088)
(0.960937 0 -0.000279183)
(0.961621 0 -0.000279268)
(0.962308 0 -0.000279353)
(0.962994 0 -0.000279399)
(0.963679 0 -0.000279417)
(0.964368 0 -0.000279436)
(0.965056 0 -0.000279379)
(0.965743 0 -0.000279241)
(0.966433 0 -0.000279101)
(0.967124 0 -0.000278892)
(0.967813 0 -0.000278578)
(0.968505 0 -0.000278262)
(0.969198 0 -0.000277908)
(0.969889 0 -0.000277482)
(0.970583 0 -0.000277053)
(0.971278 0 -0.000276625)
(0.971971 0 -0.000276198)
(0.972667 0 -0.000275769)
(0.973364 0 -0.000275375)
(0.974059 0 -0.000275057)
(0.974757 0 -0.000274737)
(0.975456 0 -0.000274472)
(0.976152 0 -0.000274313)
(0.976852 0 -0.000274154)
(0.977553 0 -0.000274061)
(0.978251 0 -0.000274075)
(0.978953 0 -0.000274089)
(0.979655 0 -0.000274158)
(0.980356 0 -0.000274296)
(0.98106 0 -0.000274433)
(0.981764 0 -0.000274576)
(0.982467 0 -0.000274721)
(0.983173 0 -0.000274868)
(0.983878 0 -0.000274924)
(0.984583 0 -0.000274935)
(0.985292 0 -0.000274945)
(0.985998 0 -0.000274829)
(0.986705 0 -0.000274681)
(0.987416 0 -0.000274533)
(0.988123 0 -0.000274302)
(0.988833 0 -0.000274067)
(0.989545 0 -0.000273824)
(0.990253 0 -0.000273538)
(0.990965 0 -0.00027325)
(0.991677 0 -0.000272941)
(0.992388 0 -0.000272594)
(0.993102 0 -0.000272246)
(0.993815 0 -0.000271861)
(0.994529 0 -0.000271448)
(0.995246 0 -0.000271034)
(0.995959 0 -0.000270614)
(0.996675 0 -0.00027019)
(0.997394 0 -0.000269776)
(0.99811 0 -0.000269449)
(0.998828 0 -0.00026912)
(0.999547 0 -0.000268851)
(1.00027 0 -0.000268672)
(1.00099 0 -0.000268493)
(1.00171 0 -0.000268348)
(1.00243 0 -0.000268217)
(1.00315 0 -0.000268081)
(1.00387 0 -0.000267851)
(1.00459 0 -0.000267619)
(1.00532 0 -0.000267346)
(1.00604 0 -0.000267012)
(1.00676 0 -0.000266676)
(1.00749 0 -0.000266346)
(1.00821 0 -0.000266017)
(1.00894 0 -0.000265695)
(1.00966 0 -0.000265413)
(1.01039 0 -0.000265128)
(1.01112 0 -0.000264862)
(1.01185 0 -0.000264608)
(1.01258 0 -0.000264355)
(1.0133 0 -0.000264182)
(1.01403 0 -0.000264009)
(1.01476 0 -0.000263891)
(1.01549 0 -0.000263839)
(1.01623 0 -0.000263786)
(1.01696 0 -0.000263886)
(1.01769 0 -0.000263997)
(1.01842 0 -0.000264148)
(1.01916 0 -0.000264353)
(1.01989 0 -0.000264559)
(1.02063 0 -0.000264663)
(1.02136 0 -0.00026476)
(1.0221 0 -0.000264786)
(1.02284 0 -0.000264727)
(1.02358 0 -0.000264667)
(1.02432 0 -0.00026456)
(1.02506 0 -0.000264451)
(1.0258 0 -0.000264343)
(1.02654 0 -0.000264234)
(1.02728 0 -0.000264123)
(1.02802 0 -0.000263995)
(1.02877 0 -0.000263867)
(1.02951 0 -0.000263746)
(1.03026 0 -0.000263627)
(1.031 0 -0.000263586)
(1.03175 0 -0.000263692)
(1.0325 0 -0.000263798)
(1.03324 0 -0.000264403)
(1.03399 0 -0.000265021)
(1.03474 0 -0.000265912)
(1.03549 0 -0.000266969)
(1.03624 0 -0.000268064)
(1.03699 0 -0.000269247)
(1.03774 0 -0.000270436)
(1.03848 0 -0.00027147)
(1.03923 0 -0.000272505)
(1.03998 0 -0.000273264)
(1.04073 0 -0.000273888)
(1.04148 0 -0.000274313)
(1.04223 0 -0.000274415)
(1.04298 0 -0.000274475)
(1.04373 0 -0.000274209)
(1.04448 0 -0.000273941)
(1.04523 0 -0.000273771)
(1.04598 0 -0.000273617)
(1.04673 0 -0.00027379)
(1.04749 0 -0.000274164)
(1.04824 0 -0.000274731)
(1.04899 0 -0.00027559)
(1.04974 0 -0.00027648)
(1.0505 0 -0.000277491)
(1.05125 0 -0.000278508)
(1.052 0 -0.000279439)
(1.05276 0 -0.000280373)
(1.05351 0 -0.000281239)
(1.05427 0 -0.000282091)
(1.05502 0 -0.000282895)
(1.05578 0 -0.000283674)
(1.05653 0 -0.000284442)
(1.05729 0 -0.000285199)
(1.05804 0 -0.00028602)
(1.05879 0 -0.000286944)
(1.05955 0 -0.000287942)
(1.0603 0 -0.000289149)
(1.06106 0 -0.000290385)
(1.06181 0 -0.00029176)
(1.06257 0 -0.00029314)
(1.06332 0 -0.000294506)
(1.06407 0 -0.000295878)
(1.06483 0 -0.000297169)
(1.06558 0 -0.000298464)
(1.06633 0 -0.00029961)
(1.06709 0 -0.000300749)
(1.06784 0 -0.00030177)
(1.06859 0 -0.000302777)
(1.06934 0 -0.000303886)
(1.0701 0 -0.000305019)
(1.07085 0 -0.000306401)
(1.0716 0 -0.000307843)
(1.07235 0 -0.000309445)
(1.0731 0 -0.000311091)
(1.07385 0 -0.000312794)
(1.0746 0 -0.000314516)
(1.07535 0 -0.000316386)
(1.07609 0 -0.000318291)
(1.07684 0 -0.00032053)
(1.07759 0 -0.000322827)
(1.07833 0 -0.000325578)
(1.07908 0 -0.000328382)
(1.07982 0 -0.000331601)
(1.08056 0 -0.000334861)
(1.0813 0 -0.000338487)
(1.08204 0 -0.000342184)
(1.08278 0 -0.000346268)
(1.08352 0 -0.000350487)
(1.08426 0 -0.000355122)
(1.08499 0 -0.000359977)
(1.08573 0 -0.000365252)
(1.08646 0 -0.000370744)
(1.08719 0 -0.000376494)
(1.08792 0 -0.000382274)
(1.08864 0 -0.000388085)
(1.08937 0 -0.000393582)
(1.09009 0 -0.000398981)
(1.09081 0 -0.00040369)
(1.09153 0 -0.000408282)
(1.09225 0 -0.00041207)
(1.09296 0 -0.000415696)
(1.09367 0 -0.000418765)
(1.09438 0 -0.000421567)
(1.09509 0 -0.000424014)
(1.09579 0 -0.000426073)
(1.09649 0 -0.000427914)
(1.09719 0 -0.000429207)
(1.09788 0 -0.000430354)
(1.09857 0 -0.000430863)
(1.09926 0 -0.000431109)
(1.09994 0 -0.000430784)
(1.10062 0 -0.000429892)
(1.1013 0 -0.000428563)
(1.10197 0 -0.000426449)
(1.10264 0 -0.00042409)
(1.1033 0 -0.000421045)
(1.10396 0 -0.000417766)
(1.10462 0 -0.000414114)
(1.10528 0 -0.000410166)
(1.10593 0 -0.000406065)
(1.10657 0 -0.000401701)
(1.10721 0 -0.000397266)
(1.10785 0 -0.000392698)
(1.10848 0 -0.000387998)
(1.10911 0 -0.000383209)
(1.10973 0 -0.000378121)
(1.11035 0 -0.000372848)
(1.11096 0 -0.000367212)
(1.11156 0 -0.000361181)
(1.11217 0 -0.000354921)
(1.11276 0 -0.000348194)
(1.11335 0 -0.000341402)
(1.11394 0 -0.000334529)
(1.11451 0 -0.000328015)
(1.11509 0 -0.000321719)
(1.11565 0 -0.00031602)
(1.11621 0 -0.000310723)
(1.11677 0 -0.000305697)
(1.11731 0 -0.000301034)
(1.11785 0 -0.000296318)
(1.11838 0 -0.000291542)
(1.1189 0 -0.000286424)
(1.11941 0 -0.000281039)
(1.11992 0 -0.000275217)
(1.12041 0 -0.000268683)
(1.1209 0 -0.000261734)
(1.12138 0 -0.000254165)
(1.12185 0 -0.000246186)
(1.12231 0 -0.000237954)
(1.12275 0 -0.000229405)
(1.12319 0 -0.00022065)
(1.12362 0 -0.000211768)
(1.12404 0 -0.000202778)
(1.12444 0 -0.000193894)
(1.12483 0 -0.000185146)
(1.12522 0 -0.000176719)
(1.12558 0 -0.000168736)
(1.12594 0 -0.000161028)
(1.12629 0 -0.000153658)
(1.12662 0 -0.000146492)
(1.12694 0 -0.000139354)
(1.12725 0 -0.000132216)
(1.12755 0 -0.000125053)
(1.12783 0 -0.000117863)
(1.1281 0 -0.000110641)
(1.12835 0 -0.000103366)
(1.12859 0 -9.60394e-05)
(1.12881 0 -8.8724e-05)
(1.12902 0 -8.14702e-05)
(1.12921 0 -7.44897e-05)
(1.12939 0 -6.76668e-05)
(1.12955 0 -6.0983e-05)
(1.1297 0 -5.44302e-05)
(1.12983 0 -4.80854e-05)
(1.12994 0 -4.20428e-05)
(1.13003 0 -3.64148e-05)
(1.13011 0 -3.1596e-05)
(1.13016 0 -2.78374e-05)
(1.1302 0 -2.50936e-05)
(1.13022 0 -2.34843e-05)
)
;

boundaryField
{
    INLET
    {
        type            cyclic;
    }
    OUTLET
    {
        type            cyclic;
    }
    CENTER
    {
        type            symmetryPlane;
    }
    WALL
    {
        type            noSlip;
    }
    frontAndBackPlanes
    {
        type            empty;
    }
}


// ************************************************************************* //
