/*--------------------------------*- C++ -*----------------------------------*\
| =========                 |                                                 |
| \\      /  F ield         | OpenFOAM: The Open Source CFD Toolbox           |
|  \\    /   O peration     | Version:  v1806                                 |
|   \\  /    A nd           | Web:      www.OpenFOAM.com                      |
|    \\/     M anipulation  |                                                 |
\*---------------------------------------------------------------------------*/
FoamFile
{
    version     2.0;
    format      ascii;
    class       volScalarField;
    location    "10000";
    object      nutL_DNS;
}
// * * * * * * * * * * * * * * * * * * * * * * * * * * * * * * * * * * * * * //

dimensions      [0 2 -1 0 0 0 0];


internalField   nonuniform List<scalar> 
1025
(
1.94522e-12
4.44034e-11
2.02556e-10
5.73384e-10
1.11621e-09
2.18482e-09
3.44084e-09
5.61206e-09
7.79454e-09
1.1495e-08
1.55587e-08
1.98392e-08
2.68885e-08
3.39638e-08
4.10999e-08
5.23922e-08
6.39863e-08
7.5674e-08
9.02624e-08
1.08334e-07
1.26427e-07
1.44783e-07
1.68517e-07
1.95452e-07
2.22383e-07
2.49794e-07
2.82721e-07
3.21438e-07
3.59808e-07
3.9833e-07
4.39116e-07
4.93364e-07
5.45893e-07
5.98673e-07
6.52794e-07
7.14521e-07
7.87441e-07
8.56993e-07
9.26868e-07
9.99331e-07
1.08361e-06
1.17992e-06
1.26908e-06
1.35866e-06
1.44875e-06
1.5569e-06
1.68543e-06
1.79637e-06
1.90737e-06
2.01921e-06
2.14766e-06
2.30376e-06
2.45426e-06
2.58812e-06
2.72285e-06
2.8584e-06
3.04011e-06
3.25074e-06
3.41849e-06
3.57649e-06
3.73568e-06
3.89519e-06
4.14277e-06
4.41687e-06
4.60039e-06
4.78311e-06
4.9661e-06
5.14953e-06
5.46616e-06
5.81428e-06
6.0263e-06
6.23246e-06
6.43938e-06
6.6456e-06
7.01158e-06
7.44863e-06
7.72564e-06
7.95224e-06
8.18093e-06
8.41073e-06
8.77713e-06
9.31743e-06
9.72974e-06
9.97578e-06
1.02243e-05
1.04755e-05
1.07548e-05
1.14096e-05
1.20757e-05
1.23413e-05
1.26081e-05
1.28773e-05
1.31445e-05
1.37116e-05
1.45488e-05
1.50892e-05
1.53701e-05
1.56535e-05
1.5939e-05
1.62251e-05
1.71953e-05
1.8246e-05
1.85594e-05
1.88565e-05
1.91558e-05
1.94526e-05
2.00271e-05
2.12427e-05
2.2219e-05
2.25309e-05
2.28338e-05
2.31419e-05
2.34573e-05
2.44263e-05
2.59125e-05
2.67192e-05
2.70341e-05
2.73515e-05
2.76715e-05
2.79928e-05
2.94492e-05
3.12444e-05
3.18044e-05
3.21233e-05
3.24509e-05
3.2779e-05
3.31842e-05
3.51535e-05
3.7196e-05
3.75177e-05
3.78418e-05
3.81717e-05
3.8503e-05
3.92714e-05
4.15817e-05
4.35722e-05
4.39027e-05
4.4227e-05
4.45623e-05
4.48992e-05
4.61065e-05
4.87963e-05
5.06718e-05
5.09985e-05
5.13281e-05
5.16714e-05
5.1994e-05
5.375e-05
5.68724e-05
5.85258e-05
5.88469e-05
5.91738e-05
5.95018e-05
5.98464e-05
6.23044e-05
6.58575e-05
6.71579e-05
6.74719e-05
6.7808e-05
6.81455e-05
6.84707e-05
7.17791e-05
7.58257e-05
7.66344e-05
7.69421e-05
7.72512e-05
7.7584e-05
7.81452e-05
8.23253e-05
8.6597e-05
8.69219e-05
8.72518e-05
8.75486e-05
8.78733e-05
8.92788e-05
9.39547e-05
9.77973e-05
9.80945e-05
9.83931e-05
9.87301e-05
9.90358e-05
0.000101568
0.000106835
0.000109879
0.000110154
0.000110462
0.00011078
0.000111069
0.000115147
0.000120984
0.000122822
0.000123124
0.000123413
0.000123705
0.000124088
0.000130076
0.000136452
0.000136671
0.000136979
0.000137308
0.000137549
0.000139815
0.000146407
0.000151174
0.000151436
0.0001518
0.000152039
0.000152279
0.000157067
0.00016433
0.000166832
0.000167057
0.000167431
0.000167666
0.000168521
0.000175885
0.000183044
0.000183352
0.000183618
0.000183843
0.000184112
0.000188299
0.000196353
0.000200372
0.000200597
0.00020092
0.000201201
0.000201623
0.000209643
0.000218175
0.000218479
0.000218656
0.000218995
0.000219238
0.000224064
0.000232882
0.000236923
0.000237171
0.000237497
0.000237697
0.000239286
0.00024814
0.000256169
0.000256461
0.000256556
0.000256846
0.00025714
0.000264404
0.000273916
0.000276205
0.000276458
0.000276653
0.000276852
0.000281345
0.000291073
0.000296502
0.000296773
0.000296922
0.000297073
0.00029936
0.000309145
0.000317137
0.000317432
0.000317668
0.000317706
0.000318198
0.000328019
0.000338087
0.000338504
0.000338545
0.000338586
0.000339063
0.000347863
0.000358241
0.000359664
0.000359884
0.00036004
0.000360022
0.000368171
0.000378877
0.000381079
0.000381254
0.000381367
0.000381413
0.000389358
0.000400151
0.000402762
0.000402824
0.000403168
0.000403232
0.000410926
0.000421859
0.000424315
0.000424328
0.000424579
0.000424593
0.000433756
0.000444548
0.000445826
0.000446043
0.000446262
0.000446228
0.000456671
0.000467187
0.000467375
0.000467911
0.000467751
0.000469388
0.000480198
0.000489111
0.000488897
0.000489128
0.000489282
0.000493483
0.000503881
0.000510584
0.000510707
0.000510126
0.000510251
0.000518197
0.0005288
0.000531387
0.000531478
0.000531906
0.000532405
0.000542955
0.000552901
0.000552445
0.000552579
0.00055264
0.000557812
0.000568116
0.000573547
0.000573874
0.000573445
0.000573547
0.000583613
0.000593972
0.000593967
0.000594357
0.000594748
0.000599004
0.000609146
0.00061451
0.000614887
0.000614849
0.000615302
0.000625648
0.000635315
0.000635245
0.000635172
0.000635024
0.000641571
0.000652019
0.000655617
0.000655517
0.000655414
0.000658966
0.000669076
0.000675564
0.000675431
0.000675775
0.000676667
0.000686006
0.00069555
0.000695887
0.000695641
0.000695481
0.000703936
0.000714253
0.000715776
0.000716176
0.000715985
0.000722231
0.000732206
0.000735605
0.000735917
0.000735086
0.000740966
0.000751209
0.000755324
0.000755704
0.000755454
0.000760148
0.000770013
0.000774958
0.000774677
0.000774962
0.000779773
0.000789234
0.000794877
0.000795235
0.000794259
0.000799251
0.000809713
0.000814802
0.00081438
0.000813955
0.000820441
0.000829864
0.00083365
0.000833901
0.000834229
0.00084086
0.000850427
0.000854284
0.000853799
0.000853393
0.00086241
0.000872223
0.000873191
0.000873487
0.000874516
0.00088374
0.000893108
0.00089331
0.00089276
0.00089679
0.000907016
0.000912718
0.000912217
0.000912481
0.000919743
0.000929358
0.00093191
0.00093224
0.000933271
0.00094226
0.000951451
0.000952404
0.000952551
0.00095606
0.000966149
0.000971407
0.000971614
0.000971823
0.000980296
0.000990563
0.000990843
0.000991114
0.000994713
0.00100507
0.00101126
0.00101073
0.00101098
0.00102052
0.00103036
0.00103059
0.00103082
0.00103545
0.00104626
0.00105094
0.00105026
0.00105231
0.00106235
0.00107062
0.0010708
0.00107114
0.00107778
0.00108804
0.0010919
0.00109114
0.0010951
0.00110566
0.00111144
0.00111157
0.0011127
0.00112329
0.00113218
0.00113141
0.00113158
0.00114144
0.0011514
0.00115253
0.00115269
0.00115968
0.00116975
0.00117294
0.00117314
0.00117924
0.00118944
0.00119365
0.00119382
0.00119814
0.00120955
0.00121476
0.00121387
0.00121925
0.00122979
0.0012352
0.0012353
0.00123858
0.00124931
0.00125688
0.00125702
0.0012604
0.00127013
0.00127777
0.00127797
0.00128144
0.00129236
0.00129909
0.00129824
0.00130272
0.00131496
0.00132073
0.00131981
0.00132543
0.00133671
0.0013426
0.00134162
0.00134848
0.00135999
0.00136469
0.00136373
0.00137194
0.0013836
0.001386
0.00138505
0.00139565
0.00140865
0.00140764
0.00140904
0.00142088
0.00142933
0.00142952
0.00143439
0.00144647
0.00145272
0.00145043
0.00145894
0.00147125
0.00147505
0.00147399
0.00148518
0.00149642
0.00149528
0.00150043
0.00151179
0.0015194
0.00151819
0.00152587
0.00153873
0.0015414
0.00154274
0.00155428
0.00156346
0.00156356
0.00157137
0.00158199
0.00158578
0.00158698
0.00159919
0.00161017
0.00160904
0.00161514
0.00162801
0.00163297
0.00163244
0.00164393
0.00165552
0.00165485
0.00166239
0.00167475
0.00167736
0.00168055
0.00169289
0.00170121
0.00169946
0.0017096
0.00172281
0.00172244
0.0017284
0.00174081
0.00174601
0.00174682
0.00175705
0.0017681
0.00176809
0.00177607
0.00178779
0.00178989
0.00179562
0.00180805
0.00181377
0.00181569
0.0018266
0.00183604
0.00183557
0.00184643
0.0018589
0.00185825
0.00186833
0.00188002
0.00188156
0.00188926
0.0019001
0.00190391
0.0019108
0.00192238
0.00192759
0.001932
0.00194436
0.00195357
0.00195381
0.00196527
0.00197606
0.0019754
0.00198771
0.00200087
0.00199914
0.00200979
0.00202292
0.00202102
0.0020333
0.00204548
0.00204412
0.0020547
0.00206779
0.00206797
0.00207755
0.00208988
0.00208991
0.00210262
0.00211398
0.00211309
0.00212505
0.00213636
0.00213708
0.00214973
0.00216068
0.00215948
0.0021724
0.00218507
0.00218513
0.00219695
0.00220701
0.00220799
0.00222047
0.00223117
0.00223561
0.00224551
0.00225357
0.00226044
0.0022717
0.00227665
0.00228524
0.00229832
0.00229864
0.00231017
0.00232319
0.00232475
0.00233766
0.00234608
0.00235058
0.00236344
0.00237054
0.00237754
0.00238967
0.00239202
0.0024035
0.00241701
0.00241595
0.0024286
0.00243934
0.00244202
0.00245332
0.00246061
0.00246913
0.00248036
0.00248346
0.0024959
0.00250501
0.00250858
0.00252166
0.00252446
0.00253399
0.002547
0.00255099
0.00256182
0.00256778
0.0025778
0.00258859
0.00259088
0.00260431
0.00261357
0.00261848
0.00262974
0.00263311
0.00264491
0.00265609
0.00265856
0.0026696
0.0026748
0.00268705
0.00269649
0.0026986
0.00271005
0.00271557
0.00272689
0.00273535
0.00274061
0.00275093
0.00275542
0.00276649
0.00277599
0.00278316
0.00279479
0.00279962
0.00281111
0.00281809
0.00282493
0.00283632
0.00284369
0.00285395
0.00285664
0.00286774
0.00287423
0.00288125
0.00289353
0.00289875
0.00290791
0.00291174
0.00292137
0.00293166
0.00294054
0.00294706
0.0029524
0.00296473
0.00297102
0.00297959
0.00298701
0.0029967
0.00300634
0.00301351
0.00302241
0.00302704
0.00303881
0.00304574
0.00305255
0.00306175
0.00307146
0.00308117
0.0030883
0.00309722
0.00310358
0.00311295
0.00312036
0.00313016
0.00313621
0.00314522
0.00315295
0.00316239
0.00316874
0.0031755
0.00318477
0.00319077
0.00320043
0.00320551
0.00321436
0.00322251
0.00322867
0.00323587
0.00324298
0.00324942
0.00325831
0.00326459
0.00327387
0.00328056
0.00328652
0.00329497
0.00330133
0.00330556
0.00331426
0.00332288
0.00332933
0.00333313
0.00333937
0.00335018
0.00335567
0.00335956
0.00336854
0.0033743
0.00338041
0.0033891
0.00339182
0.00339761
0.00340589
0.00341405
0.00341997
0.00342259
0.00342766
0.00343638
0.00344229
0.00344966
0.00345426
0.0034598
0.00346254
0.00346989
0.00347772
0.0034827
0.0034876
0.00349552
0.00350018
0.00350463
0.00351439
0.00351861
0.00352379
0.00352878
0.00353587
0.00354012
0.00354741
0.00355186
0.00355563
0.00356248
0.00356967
0.00357395
0.00357757
0.00358379
0.00359033
0.00358807
0.00358344
0.00361785
0.00362399
0.00360182
0.00360801
0.00361455
0.00362094
0.00362671
0.00360462
0.0036104
0.00364411
0.00364932
0.00362742
0.0036331
0.00363836
0.00364321
0.00367574
0.00365373
0.00363175
0.00366331
0.0036685
0.00364639
0.00365063
0.0036547
0.00365949
0.00366407
0.00364091
0.0036445
0.00364811
0.00365217
0.00365674
0.00365995
0.00366319
0.0036395
0.00366956
0.00367259
0.00364824
0.00365077
0.00365348
0.00365641
0.00365869
0.00366073
0.0036363
0.00363817
0.00366678
0.00364166
0.0036429
0.00367094
0.00364558
0.00364664
0.00364777
0.00364886
0.00364997
0.00365065
0.00365093
0.00365077
0.00365142
0.00362556
0.00362561
0.00365139
0.00365103
0.00362414
0.00362317
0.00362225
0.00362146
0.00361967
0.00361795
0.00361672
0.00361516
0.00358703
0.00358409
0.00360732
0.00360492
0.00357636
0.00357257
0.00356908
0.00356574
0.00356202
0.00355778
0.00355385
0.00352377
0.00354412
0.00353969
0.00350954
0.00352926
0.00352389
0.00349286
0.00351172
0.00350559
0.00347395
0.00346707
0.00345985
0.00345258
0.00346967
0.00346146
0.00342841
0.00342013
0.00343605
0.00342721
0.00341781
0.00340859
0.00339909
0.00341371
0.00340303
0.00339261
0.00340678
0.00339541
0.00338373
0.00337222
0.00335983
0.00337246
0.00336023
0.00334704
0.00333341
0.00334435
0.00333022
0.0033151
0.00332455
0.00330899
0.00329269
0.0032759
0.0032836
0.0032911
0.00327324
0.00325521
0.00323649
0.0032418
0.00324706
0.00325178
0.00323099
0.00320967
0.00321311
0.00321566
0.0032178
0.00319403
0.00316994
0.00317061
0.00317042
0.00314411
0.0031433
0.00314188
0.00313952
0.00313711
0.00313391
0.00312992
0.00309911
0.00309394
0.00308764
0.00308058
0.00307303
0.00306432
0.00305532
0.00304554
0.00303479
0.00302299
0.00303844
0.0030252
0.00301076
0.00299538
0.00297913
0.00299104
0.00300233
0.0029827
0.00296186
0.0029705
0.00297847
0.00295361
0.00295949
0.00296461
0.00293452
0.00293704
0.00290366
0.00290323
0.00293845
0.00289861
0.00289368
0.00288762
0.00287928
0.00291061
0.00285695
0.00284237
0.00287041
0.00285193
0.0028305
0.00280597
0.00282916
0.00279854
0.00281906
0.00284088
0.00279754
0.00281475
0.00275852
0.00276746
0.00277509
0.00278
0.00288821
0.00277886
0.00276825
0.00291013
0.00290649
0.00289341
0.00254161
0.00275621
0.00451968
)
;

boundaryField
{
    INLET
    {
        type            cyclic;
    }
    OUTLET
    {
        type            cyclic;
    }
    CENTER
    {
        type            symmetryPlane;
    }
    WALL
    {
        type            fixedValue;
        value           uniform 0;
    }
    frontAndBackPlanes
    {
        type            empty;
    }
}


// ************************************************************************* //
