/*--------------------------------*- C++ -*----------------------------------*\
| =========                 |                                                 |
| \\      /  F ield         | OpenFOAM: The Open Source CFD Toolbox           |
|  \\    /   O peration     | Version:  v1806                                 |
|   \\  /    A nd           | Web:      www.OpenFOAM.com                      |
|    \\/     M anipulation  |                                                 |
\*---------------------------------------------------------------------------*/
FoamFile
{
    version     2.0;
    format      ascii;
    class       volVectorField;
    location    "10000";
    object      U_DNS;
}
// * * * * * * * * * * * * * * * * * * * * * * * * * * * * * * * * * * * * * //

dimensions      [0 1 -1 0 0 0 0];


internalField   nonuniform List<vector> 
1025
(
(0.00176302 0 7.15714e-07)
(0.00529723 0 2.15051e-06)
(0.00884795 0 3.59206e-06)
(0.0124152 0 5.04036e-06)
(0.015999 0 6.49546e-06)
(0.0195993 0 7.95732e-06)
(0.0232165 0 9.42604e-06)
(0.02685 0 1.09015e-05)
(0.0305005 0 1.23839e-05)
(0.0341669 0 1.38728e-05)
(0.0378503 0 1.53686e-05)
(0.0415508 0 1.68715e-05)
(0.0452659 0 1.83803e-05)
(0.0489984 0 1.98963e-05)
(0.0527485 0 2.14195e-05)
(0.0565111 0 2.29479e-05)
(0.060291 0 2.44834e-05)
(0.0640887 0 2.60261e-05)
(0.0679001 0 2.75745e-05)
(0.0717241 0 2.91283e-05)
(0.075566 0 3.06894e-05)
(0.079426 0 3.22578e-05)
(0.0832946 0 3.38301e-05)
(0.0871753 0 3.54076e-05)
(0.0910743 0 3.69925e-05)
(0.0949916 0 3.85848e-05)
(0.0989161 0 4.01805e-05)
(0.102846 0 4.17788e-05)
(0.106793 0 4.33847e-05)
(0.11076 0 4.4998e-05)
(0.114745 0 4.6619e-05)
(0.118712 0 4.82341e-05)
(0.122697 0 4.98568e-05)
(0.126702 0 5.14872e-05)
(0.130725 0 5.31253e-05)
(0.134754 0 5.47663e-05)
(0.138761 0 5.64003e-05)
(0.142787 0 5.8042e-05)
(0.146833 0 5.96916e-05)
(0.150898 0 6.1349e-05)
(0.154964 0 6.30078e-05)
(0.158994 0 6.46542e-05)
(0.163042 0 6.63084e-05)
(0.16711 0 6.79704e-05)
(0.171196 0 6.96401e-05)
(0.175302 0 7.13178e-05)
(0.179333 0 7.2969e-05)
(0.18338 0 7.46272e-05)
(0.187447 0 7.62932e-05)
(0.191533 0 7.79672e-05)
(0.195638 0 7.96492e-05)
(0.1997 0 8.13162e-05)
(0.203721 0 8.29692e-05)
(0.207761 0 8.46299e-05)
(0.21182 0 8.62983e-05)
(0.215898 0 8.79748e-05)
(0.219995 0 8.96593e-05)
(0.223987 0 9.13058e-05)
(0.227972 0 9.29507e-05)
(0.231976 0 9.46035e-05)
(0.235999 0 9.62641e-05)
(0.24004 0 9.79324e-05)
(0.244101 0 9.96087e-05)
(0.248008 0 0.000101229)
(0.251929 0 0.000102855)
(0.255869 0 0.000104489)
(0.259826 0 0.00010613)
(0.263803 0 0.000107779)
(0.267798 0 0.000109436)
(0.271619 0 0.000111029)
(0.275448 0 0.000112625)
(0.279295 0 0.000114228)
(0.283159 0 0.000115839)
(0.287042 0 0.000117458)
(0.290944 0 0.000119084)
(0.294687 0 0.000120651)
(0.298398 0 0.000122206)
(0.302126 0 0.000123769)
(0.305873 0 0.000125339)
(0.309636 0 0.000126916)
(0.313418 0 0.000128501)
(0.317099 0 0.000130047)
(0.32067 0 0.000131551)
(0.324258 0 0.000133062)
(0.327864 0 0.000134581)
(0.331486 0 0.000136106)
(0.335125 0 0.000137639)
(0.338762 0 0.000139172)
(0.342177 0 0.000140616)
(0.345607 0 0.000142067)
(0.349054 0 0.000143525)
(0.352516 0 0.000144989)
(0.355995 0 0.000146461)
(0.359491 0 0.00014794)
(0.362851 0 0.000149363)
(0.366111 0 0.000150746)
(0.369386 0 0.000152136)
(0.372677 0 0.000153531)
(0.375983 0 0.000154934)
(0.379305 0 0.000156343)
(0.382642 0 0.000157759)
(0.385729 0 0.000159069)
(0.388825 0 0.000160384)
(0.391935 0 0.000161704)
(0.39506 0 0.000163031)
(0.398199 0 0.000164364)
(0.401354 0 0.000165703)
(0.404436 0 0.000167011)
(0.40735 0 0.000168245)
(0.410276 0 0.000169485)
(0.413216 0 0.000170731)
(0.416171 0 0.000171982)
(0.419139 0 0.00017324)
(0.422121 0 0.000174503)
(0.424956 0 0.0001757)
(0.427699 0 0.000176856)
(0.430456 0 0.000178017)
(0.433225 0 0.000179183)
(0.436008 0 0.000180355)
(0.438803 0 0.000181533)
(0.441612 0 0.000182716)
(0.444216 0 0.000183803)
(0.446792 0 0.000184877)
(0.449381 0 0.000185957)
(0.451982 0 0.000187041)
(0.454595 0 0.00018813)
(0.45722 0 0.000189225)
(0.459845 0 0.000190318)
(0.462248 0 0.000191305)
(0.464662 0 0.000192296)
(0.467088 0 0.000193291)
(0.469525 0 0.000194292)
(0.471974 0 0.000195297)
(0.474434 0 0.000196307)
(0.476851 0 0.000197294)
(0.4791 0 0.000198197)
(0.481359 0 0.000199104)
(0.483629 0 0.000200016)
(0.48591 0 0.000200932)
(0.488201 0 0.000201852)
(0.490503 0 0.000202776)
(0.492728 0 0.00020366)
(0.494831 0 0.00020448)
(0.496943 0 0.000205303)
(0.499066 0 0.00020613)
(0.501198 0 0.000206962)
(0.50334 0 0.000207797)
(0.505493 0 0.000208636)
(0.507541 0 0.000209418)
(0.509506 0 0.000210155)
(0.511481 0 0.000210895)
(0.513465 0 0.000211638)
(0.515459 0 0.000212386)
(0.517462 0 0.000213136)
(0.519474 0 0.00021389)
(0.521358 0 0.000214572)
(0.523196 0 0.000215226)
(0.525043 0 0.000215884)
(0.526899 0 0.000216544)
(0.528763 0 0.000217208)
(0.530636 0 0.000217875)
(0.532518 0 0.000218545)
(0.534252 0 0.000219127)
(0.535972 0 0.0002197)
(0.5377 0 0.000220275)
(0.539437 0 0.000220854)
(0.541182 0 0.000221435)
(0.542935 0 0.000222018)
(0.544686 0 0.000222599)
(0.54629 0 0.000223089)
(0.547902 0 0.000223581)
(0.549522 0 0.000224077)
(0.55115 0 0.000224574)
(0.552785 0 0.000225074)
(0.554427 0 0.000225575)
(0.556038 0 0.000226055)
(0.557544 0 0.000226468)
(0.559056 0 0.000226882)
(0.560577 0 0.000227298)
(0.562104 0 0.000227717)
(0.563638 0 0.000228137)
(0.565179 0 0.000228559)
(0.56666 0 0.00022894)
(0.568075 0 0.000229277)
(0.569497 0 0.000229616)
(0.570926 0 0.000229957)
(0.572362 0 0.000230299)
(0.573804 0 0.000230643)
(0.575253 0 0.000230988)
(0.576613 0 0.000231274)
(0.577947 0 0.000231541)
(0.579286 0 0.000231808)
(0.580632 0 0.000232076)
(0.581984 0 0.000232346)
(0.583343 0 0.000232617)
(0.584706 0 0.000232888)
(0.585958 0 0.000233086)
(0.587216 0 0.000233284)
(0.588481 0 0.000233484)
(0.589751 0 0.000233685)
(0.591027 0 0.000233886)
(0.592309 0 0.000234088)
(0.593561 0 0.000234268)
(0.594746 0 0.000234403)
(0.595937 0 0.000234538)
(0.597133 0 0.000234673)
(0.598334 0 0.00023481)
(0.599542 0 0.000234946)
(0.600755 0 0.000235084)
(0.601905 0 0.000235177)
(0.603028 0 0.000235251)
(0.604158 0 0.000235325)
(0.605292 0 0.000235399)
(0.606431 0 0.000235474)
(0.607577 0 0.000235549)
(0.608719 0 0.000235619)
(0.609782 0 0.000235634)
(0.610851 0 0.000235649)
(0.611924 0 0.000235665)
(0.613003 0 0.00023568)
(0.614087 0 0.000235695)
(0.615176 0 0.000235711)
(0.616224 0 0.000235696)
(0.617238 0 0.000235655)
(0.618257 0 0.000235613)
(0.619281 0 0.000235572)
(0.620309 0 0.00023553)
(0.621342 0 0.000235488)
(0.622378 0 0.000235444)
(0.623344 0 0.00023535)
(0.624313 0 0.000235256)
(0.625287 0 0.000235161)
(0.626266 0 0.000235066)
(0.627249 0 0.00023497)
(0.628237 0 0.000234874)
(0.629188 0 0.000234752)
(0.630113 0 0.00023461)
(0.631043 0 0.000234467)
(0.631977 0 0.000234324)
(0.632915 0 0.00023418)
(0.633858 0 0.000234035)
(0.634794 0 0.000233884)
(0.63568 0 0.000233702)
(0.636569 0 0.000233518)
(0.637463 0 0.000233334)
(0.638361 0 0.000233149)
(0.639263 0 0.000232963)
(0.640169 0 0.000232776)
(0.641031 0 0.000232565)
(0.641885 0 0.000232348)
(0.642742 0 0.00023213)
(0.643604 0 0.000231911)
(0.644469 0 0.000231691)
(0.645339 0 0.00023147)
(0.646186 0 0.000231237)
(0.647008 0 0.000230992)
(0.647833 0 0.000230747)
(0.648662 0 0.0002305)
(0.649495 0 0.000230252)
(0.650332 0 0.000230003)
(0.651161 0 0.000229749)
(0.651954 0 0.000229483)
(0.652751 0 0.000229215)
(0.653551 0 0.000228946)
(0.654355 0 0.000228676)
(0.655163 0 0.000228405)
(0.655973 0 0.000228132)
(0.656741 0 0.00022785)
(0.657512 0 0.000227566)
(0.658286 0 0.000227281)
(0.659065 0 0.000226995)
(0.659847 0 0.000226707)
(0.660632 0 0.000226418)
(0.661382 0 0.000226126)
(0.66213 0 0.000225832)
(0.662882 0 0.000225537)
(0.663637 0 0.00022524)
(0.664396 0 0.000224942)
(0.665159 0 0.000224642)
(0.665892 0 0.000224344)
(0.66662 0 0.000224046)
(0.667352 0 0.000223746)
(0.668087 0 0.000223444)
(0.668826 0 0.000223142)
(0.669568 0 0.000222837)
(0.670284 0 0.000222539)
(0.670994 0 0.00022224)
(0.671708 0 0.000221941)
(0.672425 0 0.00022164)
(0.673145 0 0.000221337)
(0.673869 0 0.000221034)
(0.674569 0 0.000220739)
(0.675263 0 0.000220445)
(0.675962 0 0.00022015)
(0.676663 0 0.000219854)
(0.677368 0 0.000219557)
(0.678076 0 0.000219258)
(0.678758 0 0.000218971)
(0.679439 0 0.000218686)
(0.680124 0 0.0002184)
(0.680811 0 0.000218112)
(0.681502 0 0.000217822)
(0.682196 0 0.000217532)
(0.682862 0 0.000217259)
(0.683532 0 0.000216985)
(0.684204 0 0.00021671)
(0.684879 0 0.000216433)
(0.685558 0 0.000216156)
(0.686235 0 0.000215881)
(0.68689 0 0.000215623)
(0.687549 0 0.000215364)
(0.688211 0 0.000215104)
(0.688876 0 0.000214842)
(0.689544 0 0.00021458)
(0.690204 0 0.000214327)
(0.690851 0 0.000214088)
(0.6915 0 0.000213847)
(0.692153 0 0.000213606)
(0.69281 0 0.000213364)
(0.693469 0 0.00021312)
(0.694112 0 0.000212896)
(0.694751 0 0.00021268)
(0.695394 0 0.000212463)
(0.696039 0 0.000212244)
(0.696687 0 0.000212025)
(0.697337 0 0.000211806)
(0.697966 0 0.000211614)
(0.698599 0 0.000211422)
(0.699235 0 0.000211228)
(0.699874 0 0.000211034)
(0.700516 0 0.000210838)
(0.701149 0 0.000210656)
(0.701774 0 0.000210486)
(0.702401 0 0.000210315)
(0.703031 0 0.000210144)
(0.703665 0 0.000209972)
(0.704301 0 0.000209799)
(0.704919 0 0.00020965)
(0.705539 0 0.000209501)
(0.706163 0 0.000209351)
(0.706788 0 0.000209201)
(0.707417 0 0.00020905)
(0.708039 0 0.00020891)
(0.708653 0 0.000208784)
(0.70927 0 0.000208657)
(0.709889 0 0.000208529)
(0.710512 0 0.000208401)
(0.711136 0 0.000208273)
(0.711744 0 0.000208171)
(0.712355 0 0.000208069)
(0.712969 0 0.000207967)
(0.713586 0 0.000207864)
(0.714206 0 0.00020776)
(0.714816 0 0.000207675)
(0.715422 0 0.000207598)
(0.716031 0 0.000207522)
(0.716643 0 0.000207445)
(0.717258 0 0.000207368)
(0.717869 0 0.000207298)
(0.718471 0 0.000207245)
(0.719076 0 0.000207191)
(0.719684 0 0.000207137)
(0.720294 0 0.000207083)
(0.720906 0 0.00020703)
(0.721505 0 0.000206994)
(0.722106 0 0.000206958)
(0.72271 0 0.000206921)
(0.723317 0 0.000206885)
(0.723927 0 0.000206848)
(0.724525 0 0.000206824)
(0.725123 0 0.000206803)
(0.725724 0 0.000206781)
(0.726327 0 0.000206759)
(0.726934 0 0.000206737)
(0.727532 0 0.000206726)
(0.728128 0 0.000206719)
(0.728726 0 0.000206712)
(0.729327 0 0.000206705)
(0.729932 0 0.000206698)
(0.730529 0 0.000206699)
(0.731123 0 0.000206705)
(0.731719 0 0.00020671)
(0.732318 0 0.000206716)
(0.73292 0 0.000206722)
(0.733517 0 0.000206731)
(0.734109 0 0.000206744)
(0.734704 0 0.000206756)
(0.735302 0 0.000206769)
(0.735902 0 0.000206781)
(0.736498 0 0.000206793)
(0.737089 0 0.000206805)
(0.737682 0 0.000206817)
(0.738278 0 0.00020683)
(0.738878 0 0.000206842)
(0.739472 0 0.000206851)
(0.740062 0 0.000206859)
(0.740654 0 0.000206866)
(0.74125 0 0.000206873)
(0.741848 0 0.000206881)
(0.74244 0 0.000206885)
(0.74303 0 0.000206888)
(0.743622 0 0.000206891)
(0.744217 0 0.000206894)
(0.744814 0 0.000206896)
(0.745405 0 0.0002069)
(0.745994 0 0.000206905)
(0.746585 0 0.000206909)
(0.74718 0 0.000206913)
(0.747777 0 0.000206918)
(0.748365 0 0.000206932)
(0.748954 0 0.000206947)
(0.749546 0 0.000206963)
(0.75014 0 0.000206978)
(0.750736 0 0.000206996)
(0.751323 0 0.000207032)
(0.751912 0 0.000207069)
(0.752504 0 0.000207105)
(0.753099 0 0.000207142)
(0.753691 0 0.000207189)
(0.754278 0 0.000207253)
(0.754868 0 0.000207317)
(0.755461 0 0.000207381)
(0.756056 0 0.000207445)
(0.756645 0 0.000207529)
(0.757233 0 0.000207622)
(0.757824 0 0.000207715)
(0.758417 0 0.000207808)
(0.759012 0 0.000207903)
(0.759599 0 0.000208023)
(0.760188 0 0.000208143)
(0.760779 0 0.000208264)
(0.761373 0 0.000208386)
(0.761965 0 0.000208518)
(0.762552 0 0.000208663)
(0.763143 0 0.000208809)
(0.763735 0 0.000208955)
(0.764331 0 0.000209102)
(0.764918 0 0.000209268)
(0.765507 0 0.000209436)
(0.766099 0 0.000209606)
(0.766693 0 0.000209776)
(0.767286 0 0.000209955)
(0.767873 0 0.000210147)
(0.768464 0 0.00021034)
(0.769057 0 0.000210534)
(0.769653 0 0.000210729)
(0.77024 0 0.000210944)
(0.77083 0 0.000211161)
(0.771422 0 0.00021138)
(0.772017 0 0.0002116)
(0.772609 0 0.00021183)
(0.773197 0 0.000212071)
(0.773789 0 0.000212313)
(0.774383 0 0.000212557)
(0.774978 0 0.000212802)
(0.775566 0 0.000213063)
(0.776157 0 0.000213325)
(0.77675 0 0.000213588)
(0.777346 0 0.000213852)
(0.777937 0 0.000214124)
(0.778527 0 0.000214398)
(0.779119 0 0.000214675)
(0.779715 0 0.000214952)
(0.780308 0 0.000215232)
(0.780898 0 0.000215513)
(0.78149 0 0.000215795)
(0.782085 0 0.000216079)
(0.782681 0 0.000216364)
(0.78327 0 0.000216646)
(0.783862 0 0.000216931)
(0.784457 0 0.000217216)
(0.785054 0 0.000217503)
(0.785644 0 0.000217785)
(0.786236 0 0.000218069)
(0.78683 0 0.000218353)
(0.787427 0 0.000218639)
(0.788019 0 0.000218922)
(0.788611 0 0.000219203)
(0.789205 0 0.000219486)
(0.789802 0 0.000219771)
(0.790395 0 0.00022005)
(0.790987 0 0.000220326)
(0.791581 0 0.000220603)
(0.792178 0 0.000220881)
(0.792773 0 0.000221152)
(0.793364 0 0.000221412)
(0.793959 0 0.000221673)
(0.794556 0 0.000221935)
(0.795151 0 0.000222188)
(0.795743 0 0.000222421)
(0.796338 0 0.000222656)
(0.796935 0 0.000222892)
(0.797532 0 0.000223117)
(0.798124 0 0.000223318)
(0.798719 0 0.000223519)
(0.799316 0 0.000223721)
(0.799913 0 0.000223912)
(0.800506 0 0.000224075)
(0.801101 0 0.000224238)
(0.801699 0 0.000224403)
(0.802296 0 0.000224554)
(0.802889 0 0.000224678)
(0.803485 0 0.000224802)
(0.804084 0 0.000224927)
(0.804681 0 0.000225037)
(0.805274 0 0.000225123)
(0.805871 0 0.000225209)
(0.80647 0 0.000225296)
(0.807067 0 0.000225365)
(0.807661 0 0.000225416)
(0.808258 0 0.000225467)
(0.808858 0 0.000225518)
(0.809454 0 0.000225551)
(0.810049 0 0.000225573)
(0.810646 0 0.000225595)
(0.811247 0 0.000225618)
(0.811842 0 0.000225623)
(0.812438 0 0.000225623)
(0.813036 0 0.000225623)
(0.813638 0 0.000225623)
(0.814232 0 0.000225607)
(0.814828 0 0.000225589)
(0.815428 0 0.000225572)
(0.816028 0 0.000225552)
(0.816623 0 0.000225523)
(0.817221 0 0.000225493)
(0.817821 0 0.000225463)
(0.81842 0 0.000225431)
(0.819015 0 0.000225397)
(0.819614 0 0.000225363)
(0.820216 0 0.000225328)
(0.820813 0 0.000225297)
(0.82141 0 0.000225267)
(0.822009 0 0.000225236)
(0.822612 0 0.000225206)
(0.823207 0 0.000225182)
(0.823806 0 0.000225158)
(0.824407 0 0.000225133)
(0.825007 0 0.000225109)
(0.825604 0 0.000225087)
(0.826203 0 0.000225064)
(0.826806 0 0.000225041)
(0.827404 0 0.000225015)
(0.828002 0 0.000224989)
(0.828603 0 0.000224963)
(0.829205 0 0.000224935)
(0.829802 0 0.000224897)
(0.830402 0 0.000224859)
(0.831004 0 0.000224821)
(0.831603 0 0.000224764)
(0.832202 0 0.000224696)
(0.832803 0 0.000224627)
(0.833406 0 0.000224553)
(0.834003 0 0.000224434)
(0.834603 0 0.000224313)
(0.835206 0 0.000224192)
(0.835806 0 0.00022403)
(0.836404 0 0.00022384)
(0.837006 0 0.000223648)
(0.83761 0 0.000223446)
(0.838208 0 0.000223171)
(0.838808 0 0.000222895)
(0.839412 0 0.000222617)
(0.840012 0 0.000222279)
(0.840612 0 0.00022191)
(0.841215 0 0.000221538)
(0.841817 0 0.000221144)
(0.842416 0 0.000220679)
(0.843018 0 0.000220212)
(0.843623 0 0.000219743)
(0.844222 0 0.000219197)
(0.844823 0 0.000218635)
(0.845428 0 0.00021807)
(0.84603 0 0.000217463)
(0.846631 0 0.000216811)
(0.847234 0 0.000216157)
(0.847839 0 0.000215489)
(0.84844 0 0.000214756)
(0.849043 0 0.000214019)
(0.849649 0 0.000213278)
(0.850251 0 0.000212475)
(0.850854 0 0.000211654)
(0.85146 0 0.000210828)
(0.852064 0 0.000209956)
(0.852666 0 0.000209041)
(0.853271 0 0.000208121)
(0.853877 0 0.000207173)
(0.85448 0 0.000206156)
(0.855085 0 0.000205133)
(0.855693 0 0.000204103)
(0.856295 0 0.000202976)
(0.8569 0 0.000201843)
(0.857508 0 0.000200703)
(0.858111 0 0.000199474)
(0.858716 0 0.000198217)
(0.859323 0 0.000196955)
(0.859928 0 0.000195616)
(0.860533 0 0.000194227)
(0.86114 0 0.000192832)
(0.861745 0 0.000191381)
(0.86235 0 0.00018986)
(0.862957 0 0.000188332)
(0.863564 0 0.000186767)
(0.864168 0 0.000185127)
(0.864774 0 0.000183479)
(0.865383 0 0.000181808)
(0.865987 0 0.000180062)
(0.866594 0 0.000178308)
(0.867203 0 0.000176541)
(0.867807 0 0.000174704)
(0.868413 0 0.000172857)
(0.869023 0 0.000171001)
(0.869627 0 0.00016909)
(0.870234 0 0.00016717)
(0.870844 0 0.00016524)
(0.871448 0 0.000163273)
(0.872056 0 0.000161293)
(0.872666 0 0.000159304)
(0.873272 0 0.000157279)
(0.873879 0 0.000155241)
(0.87449 0 0.000153194)
(0.875096 0 0.000151103)
(0.875704 0 0.000149)
(0.876315 0 0.000146885)
(0.876921 0 0.00014472)
(0.87753 0 0.000142542)
(0.878141 0 0.000140354)
(0.878748 0 0.000138115)
(0.879357 0 0.000135865)
(0.879968 0 0.000133603)
(0.880575 0 0.000131286)
(0.881185 0 0.000128957)
(0.881797 0 0.000126614)
(0.882404 0 0.000124206)
(0.883014 0 0.000121784)
(0.883626 0 0.00011934)
(0.884234 0 0.000116833)
(0.884845 0 0.000114314)
(0.885457 0 0.000111772)
(0.886066 0 0.00010919)
(0.886677 0 0.000106596)
(0.887288 0 0.000103987)
(0.887898 0 0.000101364)
(0.888509 0 9.87281e-05)
(0.88912 0 9.60871e-05)
(0.88973 0 9.34383e-05)
(0.890343 0 9.07778e-05)
(0.890953 0 8.81117e-05)
(0.891564 0 8.54347e-05)
(0.892178 0 8.27477e-05)
(0.892787 0 8.00409e-05)
(0.893399 0 7.73205e-05)
(0.894012 0 7.45811e-05)
(0.894622 0 7.18009e-05)
(0.895235 0 6.90089e-05)
(0.895847 0 6.61784e-05)
(0.896458 0 6.32976e-05)
(0.897071 0 6.0403e-05)
(0.897683 0 5.74447e-05)
(0.898294 0 5.44483e-05)
(0.898909 0 5.14377e-05)
(0.899519 0 4.83445e-05)
(0.900132 0 4.52317e-05)
(0.900747 0 4.20934e-05)
(0.901358 0 3.89012e-05)
(0.901972 0 3.56944e-05)
(0.902586 0 3.24653e-05)
(0.903199 0 2.9213e-05)
(0.903814 0 2.59458e-05)
(0.904427 0 2.26769e-05)
(0.905041 0 1.93937e-05)
(0.905657 0 1.6101e-05)
(0.906269 0 1.28155e-05)
(0.906885 0 9.51364e-06)
(0.9075 0 6.21171e-06)
(0.908114 0 2.90856e-06)
(0.908732 0 -4.10833e-07)
(0.909346 0 -3.71467e-06)
(0.909962 0 -7.03039e-06)
(0.910578 0 -1.03461e-05)
(0.911193 0 -1.36477e-05)
(0.911811 0 -1.6967e-05)
(0.912426 0 -2.02612e-05)
(0.913043 0 -2.35545e-05)
(0.913661 0 -2.68546e-05)
(0.914276 0 -3.01246e-05)
(0.914894 0 -3.34101e-05)
(0.915511 0 -3.66745e-05)
(0.916128 0 -3.99305e-05)
(0.916748 0 -4.31973e-05)
(0.917364 0 -4.63979e-05)
(0.917983 0 -4.96133e-05)
(0.918602 0 -5.27808e-05)
(0.91922 0 -5.59106e-05)
(0.919841 0 -5.90513e-05)
(0.920458 0 -6.20879e-05)
(0.921079 0 -6.51381e-05)
(0.921699 0 -6.81392e-05)
(0.922319 0 -7.11031e-05)
(0.922941 0 -7.40745e-05)
(0.92356 0 -7.69676e-05)
(0.924182 0 -7.98734e-05)
(0.924803 0 -8.27474e-05)
(0.925425 0 -8.56052e-05)
(0.926048 0 -8.84671e-05)
(0.926669 0 -9.13017e-05)
(0.927292 0 -9.41499e-05)
(0.927914 0 -9.70009e-05)
(0.928536 0 -9.98616e-05)
(0.92916 0 -0.000102741)
(0.929781 0 -0.000105646)
(0.930406 0 -0.000108564)
(0.931028 0 -0.000111525)
(0.931652 0 -0.000114502)
(0.932275 0 -0.000117505)
(0.932899 0 -0.000120533)
(0.933525 0 -0.000123573)
(0.934148 0 -0.00012662)
(0.934775 0 -0.000129681)
(0.935399 0 -0.000132742)
(0.936025 0 -0.000135814)
(0.936651 0 -0.000138898)
(0.937277 0 -0.000141994)
(0.937905 0 -0.000145104)
(0.938531 0 -0.000148237)
(0.939159 0 -0.000151385)
(0.939785 0 -0.000154566)
(0.940414 0 -0.000157766)
(0.941042 0 -0.000161006)
(0.94167 0 -0.000164284)
(0.942299 0 -0.000167585)
(0.942927 0 -0.000170932)
(0.943557 0 -0.000174296)
(0.944185 0 -0.000177681)
(0.944815 0 -0.000181082)
(0.945444 0 -0.000184465)
(0.946074 0 -0.000187849)
(0.946705 0 -0.000191201)
(0.947334 0 -0.000194511)
(0.947966 0 -0.000197802)
(0.948596 0 -0.000200988)
(0.949228 0 -0.000204187)
(0.949858 0 -0.000207211)
(0.95049 0 -0.000210249)
(0.951121 0 -0.000213131)
(0.951753 0 -0.000215983)
(0.952385 0 -0.000218712)
(0.953017 0 -0.000221364)
(0.95365 0 -0.000223927)
(0.954282 0 -0.000226364)
(0.954916 0 -0.000228752)
(0.955548 0 -0.000230985)
(0.956183 0 -0.00023321)
(0.956815 0 -0.000235289)
(0.957451 0 -0.000237376)
(0.958084 0 -0.000239343)
(0.95872 0 -0.000241312)
(0.959354 0 -0.000243167)
(0.95999 0 -0.000245005)
(0.960626 0 -0.000246729)
(0.961262 0 -0.000248408)
(0.961898 0 -0.000249997)
(0.962535 0 -0.000251528)
(0.963172 0 -0.000253001)
(0.96381 0 -0.000254414)
(0.964448 0 -0.000255778)
(0.965086 0 -0.00025707)
(0.965725 0 -0.000258318)
(0.966363 0 -0.000259475)
(0.967003 0 -0.000260601)
(0.967642 0 -0.000261639)
(0.968282 0 -0.000262664)
(0.968922 0 -0.000263637)
(0.969564 0 -0.000264614)
(0.970204 0 -0.000265595)
(0.970846 0 -0.000266587)
(0.971487 0 -0.000267618)
(0.972131 0 -0.00026866)
(0.972773 0 -0.000269742)
(0.973416 0 -0.000270834)
(0.974059 0 -0.000271959)
(0.974704 0 -0.000273092)
(0.975347 0 -0.000274242)
(0.975993 0 -0.000275392)
(0.976637 0 -0.000276517)
(0.977283 0 -0.000277628)
(0.977929 0 -0.000278665)
(0.978576 0 -0.000279678)
(0.979222 0 -0.000280601)
(0.979869 0 -0.000281496)
(0.980516 0 -0.000282312)
(0.981165 0 -0.000283103)
(0.981813 0 -0.000283842)
(0.982462 0 -0.000284565)
(0.983111 0 -0.000285264)
(0.98376 0 -0.000285953)
(0.98441 0 -0.00028663)
(0.98506 0 -0.000287297)
(0.985712 0 -0.000287957)
(0.986362 0 -0.000288629)
(0.987014 0 -0.000289307)
(0.987665 0 -0.000290015)
(0.988318 0 -0.000290733)
(0.988969 0 -0.000291448)
(0.989623 0 -0.000292162)
(0.990275 0 -0.000292801)
(0.990928 0 -0.000293417)
(0.991581 0 -0.000293905)
(0.992235 0 -0.000294329)
(0.992889 0 -0.000294616)
(0.993543 0 -0.000294799)
(0.994198 0 -0.000294868)
(0.994852 0 -0.000294824)
(0.995508 0 -0.000294718)
(0.996163 0 -0.000294526)
(0.996819 0 -0.000294313)
(0.997474 0 -0.000294034)
(0.998131 0 -0.000293741)
(0.998787 0 -0.000293404)
(0.999444 0 -0.00029303)
(1.0001 0 -0.000292603)
(1.00076 0 -0.000292074)
(1.00142 0 -0.000291482)
(1.00207 0 -0.00029074)
(1.00273 0 -0.000289959)
(1.00339 0 -0.000289072)
(1.00405 0 -0.000288168)
(1.00471 0 -0.000287231)
(1.00537 0 -0.000286306)
(1.00603 0 -0.000285389)
(1.0067 0 -0.000284549)
(1.00736 0 -0.000283735)
(1.00802 0 -0.000283039)
(1.00868 0 -0.000282391)
(1.00935 0 -0.000281824)
(1.01001 0 -0.000281344)
(1.01068 0 -0.000280908)
(1.01134 0 -0.000280587)
(1.012 0 -0.000280296)
(1.01267 0 -0.000280083)
(1.01334 0 -0.000279932)
(1.014 0 -0.00027983)
(1.01467 0 -0.000279855)
(1.01534 0 -0.000279932)
(1.01601 0 -0.000280146)
(1.01668 0 -0.000280449)
(1.01735 0 -0.000280827)
(1.01802 0 -0.000281336)
(1.0187 0 -0.000281893)
(1.01937 0 -0.000282549)
(1.02005 0 -0.000283255)
(1.02072 0 -0.000283996)
(1.0214 0 -0.00028475)
(1.02207 0 -0.000285491)
(1.02275 0 -0.000286202)
(1.02343 0 -0.000286879)
(1.0241 0 -0.000287546)
(1.02478 0 -0.000288215)
(1.02546 0 -0.00028891)
(1.02614 0 -0.000289631)
(1.02682 0 -0.000290428)
(1.0275 0 -0.000291254)
(1.02818 0 -0.000292122)
(1.02886 0 -0.000292961)
(1.02955 0 -0.000293759)
(1.03023 0 -0.000294404)
(1.03091 0 -0.000294871)
(1.0316 0 -0.000295207)
(1.03228 0 -0.000295234)
(1.03296 0 -0.000295075)
(1.03365 0 -0.000294736)
(1.03433 0 -0.00029402)
(1.03502 0 -0.000293148)
(1.0357 0 -0.000292087)
(1.03639 0 -0.000290822)
(1.03707 0 -0.00028946)
(1.03776 0 -0.000287982)
(1.03844 0 -0.000286318)
(1.03913 0 -0.000284545)
(1.03982 0 -0.000282635)
(1.04051 0 -0.000280572)
(1.04119 0 -0.000278446)
(1.04188 0 -0.000276255)
(1.04257 0 -0.000274064)
(1.04326 0 -0.000271888)
(1.04395 0 -0.000269734)
(1.04464 0 -0.000267566)
(1.04533 0 -0.000265343)
(1.04602 0 -0.000263056)
(1.04671 0 -0.00026062)
(1.0474 0 -0.000258078)
(1.0481 0 -0.000255426)
(1.04879 0 -0.000252584)
(1.04948 0 -0.000249534)
(1.05017 0 -0.000246281)
(1.05087 0 -0.00024272)
(1.05156 0 -0.000238761)
(1.05226 0 -0.000234503)
(1.05295 0 -0.000229934)
(1.05365 0 -0.000224835)
(1.05434 0 -0.000219414)
(1.05504 0 -0.000213672)
(1.05574 0 -0.000207524)
(1.05643 0 -0.000201021)
(1.05713 0 -0.000194268)
(1.05783 0 -0.000187281)
(1.05852 0 -0.000180006)
(1.05922 0 -0.000172561)
(1.05992 0 -0.000164989)
(1.06061 0 -0.000157327)
(1.06131 0 -0.000149718)
(1.06201 0 -0.000142199)
(1.06271 0 -0.000134789)
(1.06341 0 -0.000127539)
(1.06411 0 -0.000120457)
(1.0648 0 -0.000113494)
(1.0655 0 -0.000106645)
(1.0662 0 -9.99268e-05)
(1.0669 0 -9.32956e-05)
(1.06759 0 -8.66822e-05)
(1.06829 0 -8.00748e-05)
(1.06898 0 -7.34716e-05)
(1.06968 0 -6.69363e-05)
(1.07037 0 -6.04794e-05)
(1.07106 0 -5.41159e-05)
(1.07175 0 -4.78566e-05)
(1.07244 0 -4.17339e-05)
(1.07312 0 -3.56622e-05)
(1.07381 0 -2.95994e-05)
(1.07449 0 -2.35099e-05)
(1.07518 0 -1.73554e-05)
(1.07586 0 -1.11162e-05)
(1.07654 0 -4.84639e-06)
(1.07722 0 1.40806e-06)
(1.0779 0 7.60083e-06)
(1.07858 0 1.36703e-05)
(1.07925 0 1.96159e-05)
(1.07993 0 2.55171e-05)
(1.0806 0 3.1396e-05)
(1.08127 0 3.72643e-05)
(1.08194 0 4.31194e-05)
(1.08261 0 4.90166e-05)
(1.08328 0 5.50251e-05)
(1.08394 0 6.11757e-05)
(1.0846 0 6.74936e-05)
(1.08526 0 7.40043e-05)
(1.08592 0 8.07564e-05)
(1.08658 0 8.77653e-05)
(1.08723 0 9.50234e-05)
(1.08788 0 0.000102529)
(1.08852 0 0.000110254)
(1.08917 0 0.000118156)
(1.08981 0 0.000126189)
(1.09045 0 0.000134349)
(1.09108 0 0.000142673)
(1.09171 0 0.000151213)
(1.09234 0 0.000159995)
(1.09297 0 0.000169028)
(1.09359 0 0.000178301)
(1.09421 0 0.00018778)
(1.09483 0 0.000197402)
(1.09544 0 0.00020707)
(1.09605 0 0.000216733)
(1.09665 0 0.000226347)
(1.09725 0 0.000235886)
(1.09784 0 0.000245354)
(1.09843 0 0.000254777)
(1.09902 0 0.000264174)
(1.0996 0 0.000273524)
(1.10018 0 0.000282752)
(1.10075 0 0.000291821)
(1.10132 0 0.000300729)
(1.10188 0 0.000309436)
(1.10244 0 0.000317897)
(1.10299 0 0.000326083)
(1.10354 0 0.000333984)
(1.10408 0 0.000341598)
(1.10461 0 0.000348936)
(1.10514 0 0.000356018)
(1.10566 0 0.000362869)
(1.10618 0 0.000369512)
(1.10669 0 0.000375947)
(1.10719 0 0.000382144)
(1.10768 0 0.000388039)
(1.10817 0 0.000393622)
(1.10865 0 0.000398993)
(1.10912 0 0.000404293)
(1.10958 0 0.000409619)
(1.11004 0 0.000415084)
(1.11048 0 0.000420812)
(1.11092 0 0.000426906)
(1.11135 0 0.00043343)
(1.11177 0 0.000440382)
(1.11219 0 0.00044776)
(1.11259 0 0.000455536)
(1.11298 0 0.000463627)
(1.11337 0 0.000471941)
(1.11374 0 0.000480416)
(1.11411 0 0.000488962)
(1.11446 0 0.000497446)
(1.1148 0 0.000505713)
(1.11514 0 0.000513619)
(1.11546 0 0.000521114)
(1.11577 0 0.000528254)
(1.11607 0 0.000535103)
(1.11636 0 0.000541717)
(1.11664 0 0.000548132)
(1.1169 0 0.000554324)
(1.11716 0 0.00056022)
(1.11739 0 0.000565791)
(1.11762 0 0.000571107)
(1.11783 0 0.000576295)
(1.11803 0 0.000581476)
(1.11822 0 0.000586708)
(1.11839 0 0.000591979)
(1.11855 0 0.000597244)
(1.11869 0 0.000602408)
(1.11881 0 0.00060731)
(1.11893 0 0.000611794)
(1.11902 0 0.000615789)
(1.1191 0 0.000619295)
(1.11916 0 0.000622313)
(1.11921 0 0.000624738)
(1.11925 0 0.000626423)
(1.11926 0 0.000627284)
)
;

boundaryField
{
    INLET
    {
        type            cyclic;
    }
    OUTLET
    {
        type            cyclic;
    }
    CENTER
    {
        type            symmetryPlane;
    }
    WALL
    {
        type            noSlip;
    }
    frontAndBackPlanes
    {
        type            empty;
    }
}


// ************************************************************************* //
