/*--------------------------------*- C++ -*----------------------------------*\
| =========                 |                                                 |
| \\      /  F ield         | OpenFOAM: The Open Source CFD Toolbox           |
|  \\    /   O peration     | Version:  v1806                                 |
|   \\  /    A nd           | Web:      www.OpenFOAM.com                      |
|    \\/     M anipulation  |                                                 |
\*---------------------------------------------------------------------------*/
FoamFile
{
    version     2.0;
    format      ascii;
    class       volVectorField;
    location    "10000";
    object      divRS_RANS;
}
// * * * * * * * * * * * * * * * * * * * * * * * * * * * * * * * * * * * * * //

dimensions      [0 1 -2 0 0 0 0];


internalField   nonuniform List<vector> 
1025
(
(-1.64962e-07 0.00119541 0)
(-8.36274e-07 0.00316752 0)
(-2.26131e-06 0.00544739 0)
(-4.46566e-06 0.00774651 0)
(-7.463e-06 0.0100654 0)
(-1.12679e-05 0.0124048 0)
(-1.58957e-05 0.0147652 0)
(-2.13626e-05 0.0171474 0)
(-2.76857e-05 0.0195518 0)
(-3.48832e-05 0.0219794 0)
(-4.29739e-05 0.0244306 0)
(-5.19773e-05 0.0269061 0)
(-6.19161e-05 0.0294067 0)
(-7.28106e-05 0.0319331 0)
(-8.46818e-05 0.0344857 0)
(-9.75581e-05 0.0370661 0)
(-0.000111463 0.0396741 0)
(-0.000126421 0.0423108 0)
(-0.000142462 0.0449781 0)
(-0.000159613 0.0476731 0)
(-0.000177906 0.0503999 0)
(-0.000197371 0.0531598 0)
(-0.000218039 0.0559497 0)
(-0.000239949 0.0587738 0)
(-0.000263133 0.0616339 0)
(-0.000287623 0.0645273 0)
(-0.000313478 0.0674553 0)
(-0.000340716 0.0704201 0)
(-0.000369369 0.0734231 0)
(-0.000399522 0.0764652 0)
(-0.000431197 0.0795444 0)
(-0.000464428 0.0826632 0)
(-0.000499293 0.0858239 0)
(-0.00053582 0.089026 0)
(-0.00057407 0.0922705 0)
(-0.000614113 0.0955588 0)
(-0.000655986 0.0988913 0)
(-0.00069975 0.102268 0)
(-0.000745492 0.105691 0)
(-0.000793276 0.109162 0)
(-0.000843143 0.112681 0)
(-0.000895185 0.116246 0)
(-0.000949477 0.119872 0)
(-0.00100608 0.123538 0)
(-0.0010651 0.127253 0)
(-0.00112663 0.131032 0)
(-0.00119073 0.134855 0)
(-0.0012575 0.138748 0)
(-0.00132705 0.142693 0)
(-0.00139947 0.146676 0)
(-0.00147486 0.150731 0)
(-0.00155337 0.154852 0)
(-0.00163506 0.159027 0)
(-0.00172002 0.163265 0)
(-0.00180855 0.167558 0)
(-0.00190067 0.171932 0)
(-0.0019964 0.176362 0)
(-0.0020961 0.18085 0)
(-0.00219982 0.185417 0)
(-0.00230756 0.19005 0)
(-0.00241978 0.194747 0)
(-0.0025366 0.199517 0)
(-0.00265805 0.204369 0)
(-0.00278432 0.209291 0)
(-0.00291572 0.214282 0)
(-0.00305248 0.21935 0)
(-0.00319482 0.224505 0)
(-0.00334279 0.229733 0)
(-0.00349684 0.235043 0)
(-0.00365715 0.240425 0)
(-0.0038239 0.245897 0)
(-0.00399756 0.251458 0)
(-0.0041782 0.2571 0)
(-0.00436636 0.262828 0)
(-0.00456232 0.268643 0)
(-0.00476625 0.274562 0)
(-0.00497858 0.280558 0)
(-0.00519977 0.286651 0)
(-0.00543022 0.29284 0)
(-0.00567035 0.299124 0)
(-0.00592055 0.305505 0)
(-0.00618128 0.311982 0)
(-0.00645299 0.318565 0)
(-0.00673619 0.325249 0)
(-0.00703162 0.332028 0)
(-0.0073397 0.338917 0)
(-0.00766097 0.345928 0)
(-0.00799606 0.35303 0)
(-0.00834577 0.360239 0)
(-0.00871061 0.367575 0)
(-0.00909203 0.375014 0)
(-0.00948995 0.382571 0)
(-0.00990514 0.390244 0)
(-0.0103391 0.398029 0)
(-0.0107919 0.405941 0)
(-0.0112653 0.41397 0)
(-0.0117605 0.422115 0)
(-0.012278 0.430397 0)
(-0.0128197 0.438804 0)
(-0.0133854 0.44733 0)
(-0.0139769 0.455986 0)
(-0.0145965 0.464791 0)
(-0.0152448 0.473673 0)
(-0.0159238 0.482728 0)
(-0.0166341 0.492006 0)
(-0.0173781 0.501297 0)
(-0.0181578 0.510697 0)
(-0.0189744 0.520362 0)
(-0.019831 0.530134 0)
(-0.0207285 0.539949 0)
(-0.0216695 0.549961 0)
(-0.022658 0.560188 0)
(-0.0236938 0.570507 0)
(-0.0247802 0.580958 0)
(-0.0259217 0.591615 0)
(-0.0271205 0.602377 0)
(-0.0283787 0.613264 0)
(-0.0296999 0.624401 0)
(-0.0310888 0.635561 0)
(-0.0325479 0.646912 0)
(-0.03408 0.658503 0)
(-0.0356921 0.670108 0)
(-0.0373871 0.68197 0)
(-0.0391676 0.693988 0)
(-0.0410408 0.706085 0)
(-0.0430121 0.718384 0)
(-0.0450842 0.730855 0)
(-0.0472637 0.743489 0)
(-0.0495562 0.756192 0)
(-0.0519681 0.769041 0)
(-0.0545059 0.782167 0)
(-0.0571748 0.795299 0)
(-0.059982 0.808655 0)
(-0.0629352 0.822193 0)
(-0.066042 0.835715 0)
(-0.0693097 0.849495 0)
(-0.0727404 0.863459 0)
(-0.0763553 0.877468 0)
(-0.0801516 0.89155 0)
(-0.0841421 0.905837 0)
(-0.0883347 0.920231 0)
(-0.0927296 0.934695 0)
(-0.0973566 0.949357 0)
(-0.102205 0.964014 0)
(-0.107289 0.978766 0)
(-0.112628 0.99371 0)
(-0.11822 1.00861 0)
(-0.124071 1.02363 0)
(-0.130204 1.03871 0)
(-0.13662 1.05374 0)
(-0.143313 1.06889 0)
(-0.150311 1.08402 0)
(-0.157618 1.09919 0)
(-0.16523 1.11435 0)
(-0.173155 1.12944 0)
(-0.181402 1.14453 0)
(-0.189972 1.15957 0)
(-0.198866 1.1745 0)
(-0.208084 1.18932 0)
(-0.217628 1.20412 0)
(-0.227492 1.21876 0)
(-0.23767 1.23318 0)
(-0.248156 1.24747 0)
(-0.258948 1.26153 0)
(-0.270024 1.2754 0)
(-0.281379 1.28909 0)
(-0.292996 1.30247 0)
(-0.304843 1.31559 0)
(-0.31693 1.32839 0)
(-0.329208 1.34081 0)
(-0.34164 1.35284 0)
(-0.354227 1.3646 0)
(-0.366958 1.37592 0)
(-0.379778 1.3868 0)
(-0.392623 1.39729 0)
(-0.40549 1.40723 0)
(-0.418361 1.41668 0)
(-0.431173 1.42565 0)
(-0.443895 1.43407 0)
(-0.45652 1.44198 0)
(-0.468994 1.44938 0)
(-0.48125 1.45614 0)
(-0.493273 1.46226 0)
(-0.505042 1.46785 0)
(-0.51653 1.47284 0)
(-0.527714 1.47717 0)
(-0.538612 1.48093 0)
(-0.549126 1.48403 0)
(-0.559183 1.48649 0)
(-0.568791 1.48835 0)
(-0.578087 1.48958 0)
(-0.586971 1.49018 0)
(-0.595302 1.49012 0)
(-0.603241 1.48949 0)
(-0.61074 1.48824 0)
(-0.617754 1.48642 0)
(-0.624288 1.484 0)
(-0.630402 1.48094 0)
(-0.63604 1.47737 0)
(-0.641177 1.47325 0)
(-0.645973 1.46857 0)
(-0.650248 1.46339 0)
(-0.654016 1.4577 0)
(-0.657511 1.45162 0)
(-0.66054 1.44507 0)
(-0.663129 1.43757 0)
(-0.665398 1.42985 0)
(-0.667303 1.4222 0)
(-0.668782 1.41379 0)
(-0.669923 1.40531 0)
(-0.670764 1.39595 0)
(-0.671308 1.38618 0)
(-0.671511 1.37699 0)
(-0.671344 1.36675 0)
(-0.670958 1.35646 0)
(-0.670372 1.34596 0)
(-0.669477 1.33445 0)
(-0.668292 1.32367 0)
(-0.666902 1.31237 0)
(-0.665277 1.30087 0)
(-0.663498 1.28932 0)
(-0.66152 1.27725 0)
(-0.659303 1.26563 0)
(-0.656924 1.2532 0)
(-0.654343 1.24089 0)
(-0.651604 1.2287 0)
(-0.648813 1.21645 0)
(-0.645903 1.20404 0)
(-0.642744 1.19148 0)
(-0.63949 1.17885 0)
(-0.636231 1.16617 0)
(-0.632812 1.15396 0)
(-0.629199 1.14119 0)
(-0.625634 1.1286 0)
(-0.622106 1.11636 0)
(-0.61839 1.10357 0)
(-0.614529 1.09127 0)
(-0.610663 1.0791 0)
(-0.606794 1.06685 0)
(-0.602877 1.05471 0)
(-0.598953 1.04269 0)
(-0.595066 1.03077 0)
(-0.591092 1.01876 0)
(-0.587072 1.00685 0)
(-0.583128 0.995267 0)
(-0.579183 0.983998 0)
(-0.575275 0.972423 0)
(-0.571323 0.960958 0)
(-0.567447 0.950002 0)
(-0.563608 0.939151 0)
(-0.559732 0.928212 0)
(-0.555963 0.91756 0)
(-0.55227 0.907008 0)
(-0.548473 0.896592 0)
(-0.544711 0.88667 0)
(-0.541199 0.876798 0)
(-0.537758 0.866627 0)
(-0.534321 0.856766 0)
(-0.530954 0.847383 0)
(-0.527619 0.838088 0)
(-0.524291 0.829102 0)
(-0.520972 0.820046 0)
(-0.517782 0.810852 0)
(-0.514833 0.802273 0)
(-0.511912 0.793774 0)
(-0.508958 0.785204 0)
(-0.506087 0.777311 0)
(-0.503336 0.769269 0)
(-0.500648 0.761299 0)
(-0.498003 0.753633 0)
(-0.495384 0.746037 0)
(-0.492898 0.738516 0)
(-0.49056 0.731194 0)
(-0.488279 0.724301 0)
(-0.485989 0.717571 0)
(-0.483684 0.710549 0)
(-0.481522 0.703717 0)
(-0.479402 0.697534 0)
(-0.477372 0.691057 0)
(-0.475479 0.684412 0)
(-0.473556 0.678404 0)
(-0.471639 0.672684 0)
(-0.469855 0.666788 0)
(-0.468237 0.661061 0)
(-0.466589 0.655615 0)
(-0.46491 0.650109 0)
(-0.463315 0.644316 0)
(-0.461768 0.63925 0)
(-0.460237 0.63457 0)
(-0.458786 0.629265 0)
(-0.457415 0.624008 0)
(-0.456057 0.619462 0)
(-0.454703 0.614859 0)
(-0.453361 0.610296 0)
(-0.452106 0.605878 0)
(-0.450886 0.601401 0)
(-0.44971 0.596967 0)
(-0.448514 0.592574 0)
(-0.44732 0.588767 0)
(-0.446209 0.584772 0)
(-0.44514 0.580496 0)
(-0.444074 0.5768 0)
(-0.442986 0.573139 0)
(-0.44194 0.569199 0)
(-0.440935 0.565607 0)
(-0.43997 0.562049 0)
(-0.439014 0.558523 0)
(-0.437969 0.555253 0)
(-0.436995 0.552012 0)
(-0.436097 0.548583 0)
(-0.43514 0.545403 0)
(-0.434158 0.542173 0)
(-0.433249 0.539052 0)
(-0.43235 0.536262 0)
(-0.431305 0.533119 0)
(-0.430717 0.530085 0)
(-0.429897 0.527295 0)
(-0.428406 0.524747 0)
(-0.427572 0.522009 0)
(-0.427039 0.519005 0)
(-0.426221 0.516318 0)
(-0.425063 0.51387 0)
(-0.424199 0.511444 0)
(-0.423407 0.50883 0)
(-0.42256 0.50645 0)
(-0.421663 0.504023 0)
(-0.420551 0.501406 0)
(-0.41973 0.499095 0)
(-0.4188 0.496943 0)
(-0.417936 0.494882 0)
(-0.417138 0.492358 0)
(-0.416234 0.490268 0)
(-0.415121 0.488267 0)
(-0.414346 0.486077 0)
(-0.413469 0.484048 0)
(-0.412272 0.481704 0)
(-0.411411 0.479713 0)
(-0.410558 0.478008 0)
(-0.409394 0.475991 0)
(-0.408557 0.474054 0)
(-0.40773 0.472137 0)
(-0.406594 0.470175 0)
(-0.40547 0.468492 0)
(-0.404614 0.466566 0)
(-0.403768 0.464914 0)
(-0.40262 0.46322 0)
(-0.401484 0.461285 0)
(-0.400408 0.459681 0)
(-0.399545 0.457782 0)
(-0.39864 0.456093 0)
(-0.397494 0.454673 0)
(-0.396157 0.453072 0)
(-0.395081 0.451487 0)
(-0.394214 0.449613 0)
(-0.393109 0.448001 0)
(-0.391966 0.446597 0)
(-0.390834 0.445204 0)
(-0.389759 0.443638 0)
(-0.388696 0.442084 0)
(-0.387354 0.440733 0)
(-0.386218 0.439102 0)
(-0.385139 0.437539 0)
(-0.384069 0.436227 0)
(-0.382965 0.434877 0)
(-0.381636 0.433304 0)
(-0.380319 0.431979 0)
(-0.379247 0.430435 0)
(-0.378142 0.429085 0)
(-0.376816 0.427981 0)
(-0.375546 0.426476 0)
(-0.374245 0.425164 0)
(-0.37314 0.423817 0)
(-0.371822 0.422482 0)
(-0.370555 0.421208 0)
(-0.369302 0.419722 0)
(-0.368017 0.418647 0)
(-0.366968 0.417363 0)
(-0.365446 0.416042 0)
(-0.364157 0.414736 0)
(-0.362922 0.413484 0)
(-0.361657 0.41242 0)
(-0.360366 0.410886 0)
(-0.358871 0.409798 0)
(-0.357429 0.408551 0)
(-0.356212 0.407313 0)
(-0.354934 0.406215 0)
(-0.353453 0.404914 0)
(-0.352236 0.403669 0)
(-0.35082 0.402435 0)
(-0.349417 0.401421 0)
(-0.348198 0.400168 0)
(-0.346749 0.398884 0)
(-0.345106 0.397819 0)
(-0.343684 0.396763 0)
(-0.34248 0.395514 0)
(-0.341084 0.394276 0)
(-0.3397 0.393252 0)
(-0.33833 0.392036 0)
(-0.336739 0.390792 0)
(-0.335327 0.38972 0)
(-0.333963 0.388499 0)
(-0.332414 0.387486 0)
(-0.331043 0.386446 0)
(-0.329685 0.385218 0)
(-0.328145 0.384003 0)
(-0.326619 0.382799 0)
(-0.3253 0.381798 0)
(-0.323772 0.380771 0)
(-0.322225 0.379526 0)
(-0.320914 0.378328 0)
(-0.319427 0.377331 0)
(-0.317735 0.376308 0)
(-0.316245 0.375107 0)
(-0.314927 0.373882 0)
(-0.313436 0.372854 0)
(-0.311803 0.371871 0)
(-0.310368 0.370713 0)
(-0.30892 0.369531 0)
(-0.307273 0.368509 0)
(-0.305824 0.367315 0)
(-0.304389 0.366132 0)
(-0.302967 0.36514 0)
(-0.301352 0.364125 0)
(-0.299779 0.362974 0)
(-0.298221 0.361833 0)
(-0.2968 0.36064 0)
(-0.295421 0.359489 0)
(-0.293678 0.358492 0)
(-0.292099 0.357473 0)
(-0.290587 0.356353 0)
(-0.289259 0.355243 0)
(-0.287725 0.354083 0)
(-0.286008 0.353072 0)
(-0.284479 0.351904 0)
(-0.282987 0.350774 0)
(-0.28151 0.349825 0)
(-0.280022 0.348519 0)
(-0.278548 0.347392 0)
(-0.2769 0.346413 0)
(-0.275266 0.345279 0)
(-0.273812 0.344154 0)
(-0.272372 0.343041 0)
(-0.270783 0.341937 0)
(-0.269164 0.340951 0)
(-0.267582 0.33984 0)
(-0.266037 0.338606 0)
(-0.264623 0.337489 0)
(-0.263064 0.336383 0)
(-0.261518 0.335287 0)
(-0.260125 0.334175 0)
(-0.258431 0.332917 0)
(-0.256908 0.331826 0)
(-0.255401 0.330901 0)
(-0.253732 0.329804 0)
(-0.252387 0.328564 0)
(-0.250921 0.32736 0)
(-0.249297 0.326295 0)
(-0.24765 0.325191 0)
(-0.246169 0.323946 0)
(-0.244722 0.322887 0)
(-0.243138 0.321839 0)
(-0.241717 0.320651 0)
(-0.240127 0.319574 0)
(-0.238532 0.318338 0)
(-0.237135 0.317158 0)
(-0.235606 0.316137 0)
(-0.234072 0.314956 0)
(-0.232537 0.313764 0)
(-0.230998 0.312704 0)
(-0.229491 0.311533 0)
(-0.227998 0.310373 0)
(-0.226629 0.309322 0)
(-0.22499 0.307999 0)
(-0.223381 0.306849 0)
(-0.222068 0.305851 0)
(-0.220613 0.304701 0)
(-0.219016 0.303402 0)
(-0.217573 0.302253 0)
(-0.216144 0.301115 0)
(-0.214591 0.299987 0)
(-0.213037 0.298851 0)
(-0.211634 0.297588 0)
(-0.210244 0.296473 0)
(-0.208705 0.295328 0)
(-0.207179 0.29406 0)
(-0.205696 0.292843 0)
(-0.204213 0.291751 0)
(-0.202848 0.29063 0)
(-0.201366 0.289389 0)
(-0.199897 0.288289 0)
(-0.198455 0.28709 0)
(-0.197013 0.285753 0)
(-0.19556 0.284649 0)
(-0.194133 0.283574 0)
(-0.192719 0.282382 0)
(-0.191179 0.281055 0)
(-0.189906 0.279867 0)
(-0.18852 0.278817 0)
(-0.186884 0.277508 0)
(-0.1855 0.276318 0)
(-0.184142 0.275158 0)
(-0.182661 0.273867 0)
(-0.181306 0.272695 0)
(-0.179975 0.27155 0)
(-0.178766 0.2704 0)
(-0.177438 0.269123 0)
(-0.176121 0.267858 0)
(-0.175187 0.26674 0)
(-0.174133 0.265498 0)
(-0.173066 0.264235 0)
(-0.172966 0.263119 0)
(-0.172635 0.261895 0)
(-0.171123 0.260667 0)
(-0.169274 0.259451 0)
(-0.166506 0.258231 0)
(-0.163982 0.257123 0)
(-0.162413 0.255925 0)
(-0.160972 0.25451 0)
(-0.159528 0.253306 0)
(-0.158096 0.252227 0)
(-0.1568 0.250947 0)
(-0.155386 0.24965 0)
(-0.153977 0.248464 0)
(-0.152709 0.247205 0)
(-0.151445 0.245944 0)
(-0.150065 0.244778 0)
(-0.148816 0.243636 0)
(-0.14747 0.242287 0)
(-0.14612 0.241032 0)
(-0.144891 0.239898 0)
(-0.143682 0.238571 0)
(-0.142369 0.237351 0)
(-0.140953 0.23613 0)
(-0.139756 0.234802 0)
(-0.13857 0.233592 0)
(-0.137193 0.232405 0)
(-0.135918 0.231101 0)
(-0.134752 0.229901 0)
(-0.133501 0.228724 0)
(-0.132158 0.227455 0)
(-0.130923 0.226186 0)
(-0.129796 0.224917 0)
(-0.128476 0.22366 0)
(-0.127262 0.222404 0)
(-0.126061 0.221159 0)
(-0.124876 0.219937 0)
(-0.12369 0.218705 0)
(-0.12241 0.217374 0)
(-0.121246 0.216164 0)
(-0.119984 0.214945 0)
(-0.118848 0.213671 0)
(-0.117718 0.212495 0)
(-0.116466 0.211172 0)
(-0.115226 0.209861 0)
(-0.113998 0.208659 0)
(-0.113028 0.207472 0)
(-0.111971 0.206201 0)
(-0.110628 0.204935 0)
(-0.109298 0.203683 0)
(-0.108271 0.202445 0)
(-0.107348 0.201218 0)
(-0.106054 0.199909 0)
(-0.104772 0.198612 0)
(-0.103644 0.197419 0)
(-0.102617 0.196147 0)
(-0.101646 0.194882 0)
(-0.100547 0.193723 0)
(-0.099278 0.1924 0)
(-0.0981988 0.191172 0)
(-0.0972646 0.189952 0)
(-0.0960731 0.188662 0)
(-0.0948506 0.187391 0)
(-0.0937704 0.186126 0)
(-0.0927421 0.184955 0)
(-0.0917224 0.183707 0)
(-0.0907121 0.182383 0)
(-0.0896714 0.181165 0)
(-0.0885164 0.179967 0)
(-0.0874096 0.178686 0)
(-0.0865221 0.177408 0)
(-0.0854361 0.176236 0)
(-0.0843232 0.175002 0)
(-0.0833414 0.173683 0)
(-0.0823194 0.17245 0)
(-0.0813557 0.171239 0)
(-0.0802844 0.169968 0)
(-0.079223 0.16871 0)
(-0.0781728 0.167547 0)
(-0.0771636 0.166299 0)
(-0.0763585 0.165048 0)
(-0.075337 0.163838 0)
(-0.074213 0.162572 0)
(-0.0732404 0.161289 0)
(-0.0722768 0.160097 0)
(-0.0713726 0.158853 0)
(-0.0703982 0.15762 0)
(-0.0693534 0.1564 0)
(-0.0685025 0.155172 0)
(-0.0676597 0.153956 0)
(-0.066694 0.152709 0)
(-0.0656602 0.151552 0)
(-0.0646616 0.15031 0)
(-0.0637491 0.149003 0)
(-0.0628451 0.147784 0)
(-0.0619259 0.146673 0)
(-0.0610154 0.145422 0)
(-0.0600614 0.144161 0)
(-0.0591906 0.142987 0)
(-0.0583282 0.141749 0)
(-0.0573776 0.140544 0)
(-0.0565098 0.13935 0)
(-0.055671 0.138146 0)
(-0.0548197 0.136902 0)
(-0.0539033 0.135669 0)
(-0.0530147 0.134497 0)
(-0.0521689 0.133311 0)
(-0.0512591 0.132136 0)
(-0.0503945 0.130925 0)
(-0.0495913 0.129748 0)
(-0.048778 0.128538 0)
(-0.0479191 0.127312 0)
(-0.0470844 0.126213 0)
(-0.0462251 0.124967 0)
(-0.0453575 0.123758 0)
(-0.0445991 0.122647 0)
(-0.0437791 0.121408 0)
(-0.0429512 0.120207 0)
(-0.0422139 0.119059 0)
(-0.0414155 0.11792 0)
(-0.040529 0.116714 0)
(-0.0397181 0.115518 0)
(-0.0390087 0.114411 0)
(-0.0382392 0.113181 0)
(-0.0374512 0.11202 0)
(-0.036605 0.110936 0)
(-0.0358441 0.109702 0)
(-0.0351564 0.108545 0)
(-0.0343444 0.107463 0)
(-0.0335936 0.106292 0)
(-0.0328502 0.105132 0)
(-0.0321241 0.103953 0)
(-0.0314048 0.102783 0)
(-0.0306916 0.101689 0)
(-0.0299124 0.100572 0)
(-0.0291307 0.099434 0)
(-0.0284914 0.0982755 0)
(-0.0277961 0.0971282 0)
(-0.0269744 0.0960237 0)
(-0.0262999 0.0949268 0)
(-0.0256941 0.0937784 0)
(-0.0249549 0.0926439 0)
(-0.024223 0.0915815 0)
(-0.0235587 0.0904084 0)
(-0.0228477 0.0892727 0)
(-0.0221427 0.0882684 0)
(-0.0215576 0.0871273 0)
(-0.0208591 0.0859964 0)
(-0.0201667 0.0849361 0)
(-0.019546 0.0837922 0)
(-0.018872 0.0826585 0)
(-0.0181933 0.0816041 0)
(-0.0175211 0.08056 0)
(-0.0169184 0.0794914 0)
(-0.0163214 0.0783751 0)
(-0.0156724 0.0772687 0)
(-0.0150293 0.0762298 0)
(-0.0143881 0.0751791 0)
(-0.0137528 0.0740816 0)
(-0.0131275 0.0730152 0)
(-0.0125043 0.0719946 0)
(-0.0119425 0.0709276 0)
(-0.0113341 0.0698345 0)
(-0.0107277 0.0687875 0)
(-0.0101247 0.0677318 0)
(-0.00952955 0.0667042 0)
(-0.00894062 0.0656868 0)
(-0.00830014 0.0646067 0)
(-0.00777588 0.063554 0)
(-0.00725868 0.0625816 0)
(-0.00669054 0.0615481 0)
(-0.00607118 0.0604912 0)
(-0.00545762 0.0594979 0)
(-0.00490564 0.0584926 0)
(-0.00441113 0.0574442 0)
(-0.00386802 0.0564421 0)
(-0.00327761 0.0554499 0)
(-0.00279625 0.0544148 0)
(-0.00226819 0.053441 0)
(-0.00169298 0.0524628 0)
(-0.00112344 0.0514938 0)
(-0.000610069 0.0504965 0)
(-0.000101829 0.0494576 0)
(0.000402264 0.0484783 0)
(0.000901056 0.0475463 0)
(0.00144505 0.0465616 0)
(0.00193446 0.0455976 0)
(0.00241981 0.0446048 0)
(0.00294915 0.0436588 0)
(0.0034242 0.0427117 0)
(0.00389517 0.0417346 0)
(0.00441161 0.0408253 0)
(0.00487274 0.0398566 0)
(0.0053762 0.0388874 0)
(0.00587765 0.0379937 0)
(0.00632678 0.0370612 0)
(0.00677031 0.0360806 0)
(0.00725668 0.0352036 0)
(0.00769191 0.0342882 0)
(0.00812264 0.0333344 0)
(0.00864252 0.032436 0)
(0.0090653 0.0315459 0)
(0.00948376 0.0306181 0)
(0.00994453 0.0296985 0)
(0.010353 0.0288266 0)
(0.0108457 0.0279113 0)
(0.0112914 0.0270109 0)
(0.0116452 0.02617 0)
(0.0120854 0.025292 0)
(0.012519 0.0244163 0)
(0.0129456 0.0235436 0)
(0.0133682 0.0226351 0)
(0.0137457 0.0217839 0)
(0.0141229 0.0209454 0)
(0.0145772 0.0200621 0)
(0.0149813 0.0192259 0)
(0.0153443 0.0184061 0)
(0.0157473 0.0175509 0)
(0.0161395 0.0166962 0)
(0.0165282 0.0158497 0)
(0.01692 0.0150178 0)
(0.0172665 0.0141934 0)
(0.017644 0.0134125 0)
(0.0180601 0.0125975 0)
(0.018389 0.0117486 0)
(0.018756 0.0109491 0)
(0.0191236 0.0101592 0)
(0.0194838 0.00933385 0)
(0.0198408 0.00855649 0)
(0.0201942 0.00778692 0)
(0.0205446 0.00698369 0)
(0.0208915 0.00618823 0)
(0.0212311 0.00539874 0)
(0.0215674 0.00465667 0)
(0.0219006 0.00388215 0)
(0.022235 0.00311531 0)
(0.0225664 0.00235573 0)
(0.0228902 0.0016024 0)
(0.0232067 0.000856187 0)
(0.0235199 0.000116863 0)
(0.0238395 -0.000615401 0)
(0.0241514 -0.00137916 0)
(0.0244894 -0.0020972 0)
(0.0247909 -0.00280857 0)
(0.0250941 -0.00355169 0)
(0.0254275 -0.00424971 0)
(0.0256831 -0.00497851 0)
(0.0259779 -0.00570185 0)
(0.0262979 -0.0063789 0)
(0.0265728 -0.00708533 0)
(0.026855 -0.00778762 0)
(0.0271394 -0.00848497 0)
(0.0274528 -0.00913818 0)
(0.0277171 -0.00981789 0)
(0.0279787 -0.0105274 0)
(0.0282431 -0.0111961 0)
(0.0285404 -0.0118585 0)
(0.0287998 -0.0125148 0)
(0.0290512 -0.0131627 0)
(0.0293359 -0.0138397 0)
(0.0295878 -0.0144779 0)
(0.0298375 -0.01511 0)
(0.0301142 -0.0157686 0)
(0.030349 -0.0163836 0)
(0.0305862 -0.01703 0)
(0.0308559 -0.0176363 0)
(0.0310835 -0.0182337 0)
(0.031343 -0.0188934 0)
(0.0315663 -0.0195132 0)
(0.0317927 -0.0200968 0)
(0.0320506 -0.0206751 0)
(0.0322621 -0.0212744 0)
(0.0325046 -0.0218681 0)
(0.0327505 -0.0224597 0)
(0.0329556 -0.0230749 0)
(0.0331589 -0.0236192 0)
(0.0333656 -0.0241944 0)
(0.0335974 -0.0247607 0)
(0.0338271 -0.0253214 0)
(0.0340226 -0.0258773 0)
(0.0342425 -0.0264234 0)
(0.0344661 -0.0270007 0)
(0.0346559 -0.0275093 0)
(0.0348331 -0.0280358 0)
(0.0350396 -0.0285887 0)
(0.0352554 -0.0291453 0)
(0.0354381 -0.0296658 0)
(0.035639 -0.0301415 0)
(0.0358381 -0.0306433 0)
(0.0360102 -0.0311758 0)
(0.0361752 -0.0316985 0)
(0.0363689 -0.0321862 0)
(0.0365609 -0.0326691 0)
(0.0367455 -0.0331726 0)
(0.0369339 -0.0336466 0)
(0.0370909 -0.034116 0)
(0.0372758 -0.0346108 0)
(0.0374593 -0.0350717 0)
(0.0376006 -0.0355178 0)
(0.0377698 -0.0359889 0)
(0.0379139 -0.0364608 0)
(0.0380853 -0.0368995 0)
(0.0382787 -0.0373286 0)
(0.0384129 -0.0377823 0)
(0.0385513 -0.0382088 0)
(0.0387396 -0.0386258 0)
(0.0388927 -0.0390618 0)
(0.039016 -0.0394935 0)
(0.0391716 -0.0398988 0)
(0.0393258 -0.0403003 0)
(0.0394455 -0.0407202 0)
(0.0395969 -0.0411144 0)
(0.0397691 -0.0414991 0)
(0.0398742 -0.0418962 0)
(0.0400161 -0.0422738 0)
(0.0401624 -0.0426536 0)
(0.0402694 -0.0430185 0)
(0.0404236 -0.043374 0)
(0.0405498 -0.0437529 0)
(0.04068 -0.044134 0)
(0.0408146 -0.0444647 0)
(0.0409107 -0.0448067 0)
(0.041053 -0.045166 0)
(0.0411787 -0.0454815 0)
(0.0412718 -0.045814 0)
(0.0413845 -0.0461634 0)
(0.0415272 -0.0464898 0)
(0.0416431 -0.0467875 0)
(0.0417324 -0.0471079 0)
(0.0418356 -0.0474135 0)
(0.041963 -0.0476908 0)
(0.0420748 -0.0480026 0)
(0.0421499 -0.0482997 0)
(0.0422688 -0.0485878 0)
(0.0423971 -0.0488606 0)
(0.042475 -0.0491307 0)
(0.0425661 -0.0494109 0)
(0.0426809 -0.049664 0)
(0.0427512 -0.049945 0)
(0.0428449 -0.0501994 0)
(0.042962 -0.0504272 0)
(0.0430436 -0.0506648 0)
(0.0431194 -0.0509179 0)
(0.0432283 -0.051157 0)
(0.0433128 -0.0513702 0)
(0.0433912 -0.051599 0)
(0.0434691 -0.0518022 0)
(0.043546 -0.0520267 0)
(0.0436456 -0.0522493 0)
(0.0437211 -0.0524236 0)
(0.0437908 -0.0526132 0)
(0.0438778 -0.0528179 0)
(0.0439463 -0.0530039 0)
(0.0440139 -0.0531655 0)
(0.0440987 -0.0533421 0)
(0.0441601 -0.0535172 0)
(0.044221 -0.0536682 0)
(0.0443035 -0.0538399 0)
(0.0443633 -0.0539882 0)
(0.0444223 -0.0541128 0)
(0.044498 -0.0542742 0)
(0.0445728 -0.0544125 0)
(0.0446254 -0.0545275 0)
(0.0446725 -0.0546573 0)
(0.0447407 -0.0547644 0)
(0.0448083 -0.0548703 0)
(0.0448588 -0.0549812 0)
(0.0449087 -0.0550911 0)
(0.0449909 -0.0551883 0)
(0.0450257 -0.0552578 0)
(0.0450647 -0.0553324 0)
(0.045129 -0.0554121 0)
(0.0451879 -0.0555059 0)
(0.0452212 -0.0555727 0)
(0.0452585 -0.0556034 0)
(0.0453319 -0.0556689 0)
(0.0453797 -0.0557283 0)
(0.0454159 -0.0557579 0)
(0.0454472 -0.0558017 0)
(0.0455091 -0.055834 0)
(0.0455507 -0.055846 0)
(0.0455763 -0.0558633 0)
(0.0456261 -0.0558664 0)
(0.0456513 -0.0558638 0)
(0.0457063 -0.0558895 0)
(0.0457416 -0.0558761 0)
(0.0457658 -0.0558541 0)
(0.0458048 -0.0558463 0)
(0.0458345 -0.0558086 0)
(0.0458684 -0.0557766 0)
(0.0459019 -0.0557449 0)
(0.0459497 -0.0557082 0)
(0.0459826 -0.0556583 0)
(0.0459964 -0.0555901 0)
(0.0460201 -0.0555307 0)
(0.0460437 -0.0554534 0)
(0.0460712 -0.0553818 0)
(0.0461127 -0.055306 0)
(0.0461355 -0.0552123 0)
(0.046158 -0.0551197 0)
(0.0461762 -0.0550228 0)
(0.0461941 -0.0549089 0)
(0.0462299 -0.0547958 0)
(0.0462475 -0.054684 0)
(0.0462608 -0.0545327 0)
(0.046274 -0.0544004 0)
(0.0463086 -0.0542743 0)
(0.0463216 -0.0541269 0)
(0.0463301 -0.0539762 0)
(0.0463561 -0.0538095 0)
(0.0463645 -0.0536443 0)
(0.04639 -0.0534635 0)
(0.0464114 -0.0532797 0)
(0.0464115 -0.0531103 0)
(0.0464155 -0.0529129 0)
(0.0464403 -0.0527049 0)
(0.0464571 -0.05249 0)
(0.0464699 -0.0522893 0)
(0.0464736 -0.0520661 0)
(0.0464734 -0.0518238 0)
(0.0465023 -0.0515961 0)
(0.0465021 -0.0513583 0)
(0.0464941 -0.0511143 0)
(0.046515 -0.0508522 0)
(0.0465271 -0.0505845 0)
(0.046539 -0.0503194 0)
(0.0465434 -0.0500325 0)
(0.0465318 -0.0497483 0)
(0.0465397 -0.0494708 0)
(0.0465599 -0.0491602 0)
(0.0465604 -0.0488643 0)
(0.0465489 -0.0485595 0)
(0.046553 -0.0482261 0)
(0.0465655 -0.0479039 0)
(0.0465624 -0.0475693 0)
(0.0465593 -0.0472224 0)
(0.046568 -0.0468905 0)
(0.0465649 -0.0465348 0)
(0.0465618 -0.0461671 0)
(0.0465553 -0.0457995 0)
(0.0465487 -0.0454201 0)
(0.0465722 -0.0450443 0)
(0.0465623 -0.0446686 0)
(0.0465489 -0.0442636 0)
(0.0465539 -0.0438506 0)
(0.0465441 -0.0434564 0)
(0.0465456 -0.0430333 0)
(0.0465438 -0.042611 0)
(0.0465241 -0.0421897 0)
(0.0465257 -0.0417495 0)
(0.0465274 -0.0412991 0)
(0.0465189 -0.040844 0)
(0.046514 -0.0403961 0)
(0.0464981 -0.0399411 0)
(0.04649 -0.0394565 0)
(0.046482 -0.0389763 0)
(0.0464772 -0.0385035 0)
(0.04648 -0.0380157 0)
(0.0464657 -0.03753 0)
(0.0464578 -0.0370264 0)
(0.046447 -0.0364976 0)
(0.046433 -0.0359847 0)
(0.0464223 -0.0354792 0)
(0.0464189 -0.0349466 0)
(0.0464071 -0.0344166 0)
(0.0463865 -0.0338806 0)
(0.0463807 -0.0333229 0)
(0.0463683 -0.0327703 0)
(0.0463569 -0.0322077 0)
(0.0463457 -0.0316501 0)
(0.0463332 -0.0310848 0)
(0.0463188 -0.0305076 0)
(0.0463044 -0.0299359 0)
(0.0462919 -0.0293457 0)
(0.0462778 -0.0287463 0)
(0.0462635 -0.0281506 0)
(0.0462484 -0.0275623 0)
(0.0462347 -0.0269542 0)
(0.0462192 -0.0263232 0)
(0.0462021 -0.0257089 0)
(0.0461868 -0.0250896 0)
(0.0461704 -0.0244637 0)
(0.0461538 -0.0238297 0)
(0.0461361 -0.0231893 0)
(0.0461182 -0.0225414 0)
(0.0461017 -0.0218993 0)
(0.0460844 -0.0212526 0)
(0.0460658 -0.0205863 0)
(0.0460478 -0.0199239 0)
(0.0460288 -0.0192557 0)
(0.0460092 -0.018583 0)
(0.0459894 -0.0179036 0)
(0.0459694 -0.0172296 0)
(0.0459496 -0.0165501 0)
(0.0459288 -0.0158536 0)
(0.0459082 -0.015152 0)
(0.0458874 -0.0144676 0)
(0.0458654 -0.0137658 0)
(0.0458424 -0.0130475 0)
(0.0458208 -0.0123475 0)
(0.0457993 -0.0116313 0)
(0.0457766 -0.0109097 0)
(0.0457539 -0.0101831 0)
(0.0457305 -0.00945264 0)
(0.0457051 -0.00872898 0)
(0.0456782 -0.00799998 0)
(0.0456501 -0.00725536 0)
(0.0456182 -0.00650706 0)
(0.0455823 -0.00575489 0)
(0.045546 -0.00500903 0)
(0.0455094 -0.00425966 0)
(0.0454704 -0.0034849 0)
(0.0454319 -0.00272766 0)
(0.0453956 -0.00195636 0)
(0.0524765 -0.00118143 0)
(0.0666487 -0.000403183 0)
)
;

boundaryField
{
    INLET
    {
        type            cyclic;
    }
    OUTLET
    {
        type            cyclic;
    }
    CENTER
    {
        type            symmetryPlane;
    }
    WALL
    {
        type            extrapolatedCalculated;
        value           uniform (-1.64962e-07 0.00119541 0);
    }
    frontAndBackPlanes
    {
        type            empty;
    }
}


// ************************************************************************* //
