/*--------------------------------*- C++ -*----------------------------------*\
| =========                 |                                                 |
| \\      /  F ield         | OpenFOAM: The Open Source CFD Toolbox           |
|  \\    /   O peration     | Version:  v1806                                 |
|   \\  /    A nd           | Web:      www.OpenFOAM.com                      |
|    \\/     M anipulation  |                                                 |
\*---------------------------------------------------------------------------*/
FoamFile
{
    version     2.0;
    format      ascii;
    class       volScalarField;
    location    "10000";
    object      epsilon;
}
// * * * * * * * * * * * * * * * * * * * * * * * * * * * * * * * * * * * * * //

dimensions      [0 2 -3 0 0 0 0];


internalField   nonuniform List<scalar> 
1025
(
1.56466e-05
4.71294e-05
7.88653e-05
0.000110854
0.000143099
0.000175604
0.000208375
0.000241416
0.000274733
0.00030833
0.000342215
0.000376391
0.000410865
0.000445643
0.000480731
0.000516134
0.000551859
0.000587912
0.000624299
0.000661027
0.000698102
0.00073553
0.000773319
0.000811474
0.000850004
0.000888914
0.000928211
0.000967902
0.00100799
0.00104849
0.00108941
0.00113075
0.00117252
0.00121474
0.00125739
0.0013005
0.00134407
0.00138811
0.00143264
0.00147764
0.00152314
0.00156915
0.00161566
0.0016627
0.00171026
0.00175836
0.00180701
0.00185621
0.00190598
0.00195632
0.00200725
0.00205877
0.00211089
0.00216362
0.00221697
0.00227096
0.0023256
0.00238088
0.00243683
0.00249345
0.00255075
0.00260876
0.00266747
0.0027269
0.00278705
0.00284795
0.00290961
0.00297202
0.00303522
0.00309921
0.003164
0.0032296
0.00329603
0.00336331
0.00343143
0.00350043
0.00357031
0.00364109
0.00371278
0.0037854
0.00385895
0.00393346
0.00400895
0.00408543
0.00416291
0.00424141
0.00432095
0.00440155
0.00448322
0.00456599
0.00464987
0.00473487
0.00482103
0.00490836
0.00499688
0.00508662
0.00517759
0.0052698
0.0053633
0.00545809
0.00555421
0.00565166
0.00575049
0.00585071
0.00595235
0.00605542
0.00615995
0.00626597
0.00637351
0.00648258
0.00659321
0.00670542
0.00681924
0.0069347
0.00705181
0.0071706
0.0072911
0.00741333
0.00753731
0.00766307
0.00779062
0.00792001
0.00805125
0.00818436
0.00831937
0.0084563
0.00859517
0.008736
0.00887884
0.0090237
0.00917059
0.00931954
0.00947059
0.00962375
0.00977904
0.00993649
0.0100961
0.010258
0.010422
0.0105883
0.0107569
0.0109278
0.011101
0.0112765
0.0114544
0.0116346
0.0118172
0.0120023
0.0121897
0.0123796
0.012572
0.0127668
0.0129641
0.0131639
0.0133662
0.013571
0.0137783
0.0139881
0.0142004
0.0144153
0.0146326
0.0148525
0.0150749
0.0152997
0.0155271
0.0157569
0.0159891
0.0162238
0.0164608
0.0167002
0.0169418
0.0171859
0.0174322
0.0176805
0.0179308
0.0181833
0.0184378
0.018694
0.0189521
0.0192118
0.0194731
0.0197357
0.0199997
0.020265
0.0205313
0.0207985
0.0210665
0.0213349
0.0216037
0.0218727
0.0221418
0.0224107
0.0226792
0.0229472
0.0232143
0.0234804
0.0237453
0.0240087
0.0242704
0.0245303
0.0247878
0.025043
0.0252957
0.0255457
0.0257925
0.0260361
0.0262763
0.0265128
0.0267455
0.0269742
0.0271986
0.0274186
0.027634
0.0278447
0.0280507
0.0282516
0.0284473
0.0286379
0.0288231
0.0290029
0.0291772
0.0293459
0.029509
0.0296664
0.0298181
0.0299641
0.0301043
0.0302387
0.0303674
0.0304904
0.0306077
0.0307193
0.0308254
0.030926
0.031021
0.0311106
0.031195
0.0312741
0.0313482
0.0314172
0.0314814
0.0315407
0.0315954
0.0316456
0.0316914
0.0317329
0.0317703
0.0318037
0.0318332
0.031859
0.0318813
0.0319002
0.0319157
0.0319282
0.0319376
0.0319442
0.031948
0.0319493
0.0319481
0.0319446
0.0319389
0.0319311
0.0319214
0.0319099
0.0318967
0.0318818
0.0318655
0.0318478
0.0318289
0.0318088
0.0317876
0.0317654
0.0317423
0.0317184
0.0316938
0.0316685
0.0316427
0.0316163
0.0315895
0.0315624
0.0315349
0.0315072
0.0314793
0.0314512
0.0314231
0.0313949
0.0313668
0.0313386
0.0313106
0.0312827
0.0312549
0.0312274
0.0312
0.031173
0.0311462
0.0311197
0.0310936
0.0310678
0.0310425
0.0310175
0.0309929
0.0309688
0.0309452
0.030922
0.0308993
0.0308772
0.0308555
0.0308343
0.0308137
0.0307937
0.0307742
0.0307552
0.0307369
0.0307191
0.0307019
0.0306852
0.0306692
0.0306538
0.0306389
0.0306247
0.030611
0.030598
0.0305856
0.0305738
0.0305626
0.030552
0.0305421
0.0305327
0.030524
0.0305159
0.0305084
0.0305015
0.0304952
0.0304896
0.0304845
0.03048
0.0304762
0.0304729
0.0304703
0.0304683
0.0304668
0.030466
0.0304657
0.030466
0.0304669
0.0304684
0.0304705
0.0304732
0.0304764
0.0304802
0.0304846
0.0304895
0.030495
0.030501
0.0305076
0.0305148
0.0305225
0.0305307
0.0305395
0.0305488
0.0305586
0.030569
0.0305799
0.0305913
0.0306033
0.0306157
0.0306287
0.0306421
0.0306561
0.0306705
0.0306855
0.0307009
0.0307168
0.0307332
0.0307501
0.0307675
0.0307853
0.0308036
0.0308223
0.0308415
0.0308612
0.0308813
0.0309018
0.0309228
0.0309442
0.0309661
0.0309884
0.0310111
0.0310342
0.0310577
0.0310817
0.0311061
0.0311308
0.031156
0.0311816
0.0312075
0.0312338
0.0312606
0.0312877
0.0313152
0.031343
0.0313712
0.0313998
0.0314287
0.031458
0.0314877
0.0315177
0.031548
0.0315787
0.0316097
0.031641
0.0316727
0.0317046
0.0317369
0.0317696
0.0318025
0.0318357
0.0318693
0.0319031
0.0319372
0.0319716
0.0320063
0.0320413
0.0320766
0.0321121
0.0321479
0.0321839
0.0322203
0.0322568
0.0322937
0.0323307
0.0323681
0.0324056
0.0324434
0.0324815
0.0325197
0.0325582
0.0325969
0.0326358
0.0326749
0.0327143
0.0327538
0.0327935
0.0328334
0.0328736
0.0329139
0.0329543
0.032995
0.0330358
0.0330768
0.033118
0.0331593
0.0332008
0.0332425
0.0332842
0.0333262
0.0333682
0.0334104
0.0334528
0.0334952
0.0335378
0.0335805
0.0336233
0.0336663
0.0337093
0.0337524
0.0337956
0.033839
0.0338824
0.0339259
0.0339694
0.0340131
0.0340568
0.0341006
0.0341444
0.0341884
0.0342323
0.0342763
0.0343204
0.0343645
0.0344086
0.0344528
0.034497
0.0345412
0.0345854
0.0346297
0.034674
0.0347182
0.0347625
0.0348068
0.0348511
0.0348953
0.0349395
0.0349838
0.035028
0.0350721
0.0351163
0.0351604
0.0352044
0.0352484
0.0352924
0.0353363
0.0353801
0.0354239
0.0354676
0.0355113
0.0355549
0.0355983
0.0356417
0.0356851
0.0357283
0.0357714
0.0358144
0.0358574
0.0359002
0.0359429
0.0359855
0.0360279
0.0360702
0.0361124
0.0361545
0.0361964
0.0362381
0.0362798
0.0363212
0.0363625
0.0364036
0.0364446
0.0364854
0.036526
0.0365664
0.0366066
0.0366467
0.0366865
0.0367262
0.0367656
0.0368049
0.0368439
0.0368827
0.0369213
0.0369597
0.0369978
0.0370357
0.0370734
0.0371108
0.037148
0.0371849
0.0372215
0.0372579
0.0372941
0.03733
0.0373655
0.0374009
0.0374359
0.0374707
0.0375052
0.0375393
0.0375732
0.0376068
0.0376401
0.037673
0.0377056
0.037738
0.03777
0.0378017
0.037833
0.037864
0.0378947
0.037925
0.037955
0.0379846
0.0380139
0.0380428
0.0380714
0.0380996
0.0381274
0.0381548
0.0381819
0.0382086
0.0382349
0.0382608
0.0382863
0.0383114
0.0383361
0.0383604
0.0383843
0.0384077
0.0384308
0.0384535
0.0384757
0.0384974
0.0385188
0.0385397
0.0385602
0.0385802
0.0385998
0.0386189
0.0386376
0.0386558
0.0386736
0.0386909
0.0387077
0.0387241
0.0387399
0.0387553
0.0387702
0.0387847
0.0387986
0.0388121
0.038825
0.0388375
0.0388494
0.0388608
0.0388718
0.0388822
0.0388921
0.0389015
0.0389103
0.0389187
0.0389265
0.0389338
0.0389405
0.0389467
0.0389524
0.0389575
0.0389621
0.0389661
0.0389695
0.0389724
0.0389748
0.0389766
0.0389778
0.0389785
0.0389786
0.0389781
0.038977
0.0389754
0.0389732
0.0389704
0.038967
0.038963
0.0389585
0.0389533
0.0389475
0.0389412
0.0389342
0.0389267
0.0389185
0.0389098
0.0389004
0.0388904
0.0388798
0.0388686
0.0388567
0.0388443
0.0388312
0.0388175
0.0388031
0.0387882
0.0387726
0.0387563
0.0387395
0.038722
0.0387038
0.038685
0.0386656
0.0386456
0.0386248
0.0386035
0.0385815
0.0385588
0.0385355
0.0385116
0.0384869
0.0384617
0.0384357
0.0384091
0.0383819
0.038354
0.0383254
0.0382962
0.0382663
0.0382357
0.0382045
0.0381725
0.03814
0.0381067
0.0380728
0.0380382
0.038003
0.037967
0.0379304
0.0378931
0.0378552
0.0378165
0.0377772
0.0377372
0.0376966
0.0376552
0.0376132
0.0375705
0.0375271
0.037483
0.0374382
0.0373928
0.0373467
0.0372999
0.0372524
0.0372043
0.0371554
0.0371059
0.0370557
0.0370048
0.0369533
0.0369011
0.0368481
0.0367945
0.0367402
0.0366853
0.0366296
0.0365733
0.0365163
0.0364586
0.0364003
0.0363412
0.0362815
0.0362211
0.0361601
0.0360983
0.0360359
0.0359728
0.0359091
0.0358446
0.0357796
0.0357138
0.0356473
0.0355802
0.0355125
0.0354441
0.035375
0.0353052
0.0352348
0.0351637
0.035092
0.0350196
0.0349466
0.0348729
0.0347986
0.0347236
0.0346479
0.0345717
0.0344948
0.0344172
0.034339
0.0342601
0.0341806
0.0341005
0.0340198
0.0339384
0.0338564
0.0337738
0.0336905
0.0336067
0.0335222
0.033437
0.0333513
0.033265
0.033178
0.0330905
0.0330023
0.0329136
0.0328242
0.0327343
0.0326437
0.0325526
0.0324609
0.0323686
0.0322757
0.0321822
0.0320882
0.0319936
0.0318985
0.0318027
0.0317064
0.0316095
0.0315121
0.0314142
0.0313157
0.0312166
0.031117
0.0310169
0.0309162
0.030815
0.0307133
0.030611
0.0305082
0.030405
0.0303012
0.0301969
0.0300921
0.0299868
0.029881
0.0297747
0.0296679
0.0295607
0.0294529
0.0293447
0.0292361
0.029127
0.0290174
0.0289073
0.0287968
0.0286858
0.0285745
0.0284626
0.0283504
0.0282377
0.0281246
0.0280111
0.0278971
0.0277828
0.0276681
0.0275529
0.0274374
0.0273215
0.0272052
0.0270886
0.0269715
0.0268541
0.0267363
0.0266182
0.0264997
0.0263809
0.0262618
0.0261423
0.0260225
0.0259024
0.025782
0.0256613
0.0255403
0.0254189
0.0252973
0.0251754
0.0250532
0.0249308
0.0248081
0.0246851
0.0245619
0.0244385
0.0243148
0.0241909
0.0240668
0.0239424
0.0238178
0.023693
0.0235681
0.0234429
0.0233176
0.0231921
0.0230664
0.0229406
0.0228146
0.0226884
0.0225622
0.0224358
0.0223092
0.0221826
0.0220558
0.021929
0.0218021
0.021675
0.021548
0.0214208
0.0212936
0.0211663
0.0210389
0.0209116
0.0207842
0.0206568
0.0205294
0.020402
0.0202746
0.0201472
0.0200199
0.0198926
0.0197653
0.019638
0.0195109
0.0193838
0.0192568
0.0191299
0.019003
0.0188763
0.0187497
0.0186232
0.0184969
0.0183707
0.0182447
0.0181188
0.0179931
0.0178676
0.0177423
0.0176172
0.0174923
0.0173677
0.0172433
0.0171191
0.0169952
0.0168716
0.0167482
0.0166252
0.0165024
0.0163799
0.0162578
0.016136
0.0160146
0.0158935
0.0157728
0.0156525
0.0155325
0.015413
0.0152939
0.0151752
0.0150569
0.0149391
0.0148218
0.0147049
0.0145885
0.0144727
0.0143573
0.0142425
0.0141282
0.0140144
0.0139012
0.0137886
0.0136766
0.0135652
0.0134544
0.0133442
0.0132347
0.0131258
0.0130176
0.01291
0.0128032
0.012697
0.0125916
0.0124869
0.012383
0.0122798
0.0121774
0.0120757
0.0119749
0.0118749
0.0117757
0.0116774
0.0115799
0.0114833
0.0113875
0.0112927
0.0111987
0.0111057
0.0110136
0.0109225
0.0108324
0.0107432
0.010655
0.0105678
0.0104816
0.0103965
0.0103125
0.0102294
0.0101475
0.0100667
0.00998694
0.00990832
0.00983084
0.0097545
0.00967934
0.00960535
0.00953256
0.00946097
0.00939059
0.00932145
0.00925356
0.00918694
0.00912159
0.00905754
0.0089948
0.00893338
0.0088733
0.00881457
0.00875721
0.00870123
0.00864666
0.0085935
0.00854177
0.00849149
0.00844267
0.00839533
0.00834948
0.00830515
0.00826235
0.00822109
0.0081814
0.0081433
0.0081068
0.00807192
0.00803867
0.00800708
0.00797717
0.00794895
0.00792245
0.00789769
0.00787469
0.00785348
0.00783407
0.00781648
0.00780076
0.00778691
0.00777495
0.00776493
0.00775686
0.00775078
0.0077467
0.00774465
)
;

boundaryField
{
    INLET
    {
        type            cyclic;
    }
    OUTLET
    {
        type            cyclic;
    }
    CENTER
    {
        type            symmetryPlane;
    }
    WALL
    {
        type            fixedValue;
        value           uniform 1e-08;
    }
    frontAndBackPlanes
    {
        type            empty;
    }
}


// ************************************************************************* //
