/*--------------------------------*- C++ -*----------------------------------*\
| =========                 |                                                 |
| \\      /  F ield         | OpenFOAM: The Open Source CFD Toolbox           |
|  \\    /   O peration     | Version:  v1806                                 |
|   \\  /    A nd           | Web:      www.OpenFOAM.com                      |
|    \\/     M anipulation  |                                                 |
\*---------------------------------------------------------------------------*/
FoamFile
{
    version     2.0;
    format      ascii;
    class       volVectorField;
    location    "10000";
    object      grad(k);
}
// * * * * * * * * * * * * * * * * * * * * * * * * * * * * * * * * * * * * * //

dimensions      [0 1 -2 0 0 0 0];


internalField   nonuniform List<vector> 
1025
(
(1.63797e-23 0.00179312 0)
(0 0.00475128 0)
(0 0.00817108 0)
(-1.03364e-21 0.0116198 0)
(0 0.0150982 0)
(0 0.0186072 0)
(-8.15335e-21 0.0221478 0)
(0 0.025721 0)
(0 0.0293278 0)
(0 0.032969 0)
(0 0.0366458 0)
(0 0.0403592 0)
(0 0.0441101 0)
(-3.15591e-20 0.0478998 0)
(-3.1411e-20 0.0517291 0)
(0 0.0555993 0)
(-3.11176e-20 0.0595112 0)
(0 0.0634663 0)
(0 0.0674654 0)
(0 0.0715097 0)
(0 0.0756004 0)
(0 0.0797385 0)
(0 0.0839253 0)
(0 0.088162 0)
(1.19878e-19 0.0924498 0)
(1.19314e-19 0.0967898 0)
(0 0.101183 0)
(0 0.105631 0)
(0 0.110135 0)
(-1.17098e-19 0.114696 0)
(0 0.119316 0)
(1.16021e-19 0.123996 0)
(-2.30901e-19 0.128736 0)
(-1.14912e-19 0.133539 0)
(0 0.138406 0)
(0 0.143338 0)
(0 0.148336 0)
(0 0.153402 0)
(0 0.158538 0)
(0 0.163744 0)
(0 0.169022 0)
(-2.21361e-19 0.174374 0)
(0 0.179801 0)
(0 0.185305 0)
(-2.18276e-19 0.190886 0)
(-4.34444e-19 0.196548 0)
(-4.32445e-19 0.20229 0)
(0 0.208115 0)
(0 0.214025 0)
(0 0.22002 0)
(0 0.226104 0)
(0 0.232276 0)
(0 0.238539 0)
(-4.18529e-19 0.244895 0)
(0 0.251345 0)
(0 0.257891 0)
(0 0.264536 0)
(0 0.271279 0)
(0 0.278124 0)
(-4.06837e-19 0.285072 0)
(-8.0985e-19 0.292125 0)
(0 0.299285 0)
(-8.02309e-19 0.306554 0)
(0 0.313933 0)
(0 0.321425 0)
(7.91106e-19 0.329031 0)
(0 0.336754 0)
(0 0.344595 0)
(-7.79918e-19 0.352557 0)
(-7.76404e-19 0.360641 0)
(-7.72633e-19 0.36885 0)
(0 0.377186 0)
(7.65483e-19 0.385649 0)
(7.61817e-19 0.394245 0)
(0 0.402973 0)
(-1.50945e-18 0.411835 0)
(0 0.420836 0)
(0 0.429976 0)
(0 0.439258 0)
(0 0.448683 0)
(0 0.458255 0)
(0 0.467975 0)
(-1.46093e-18 0.477846 0)
(0 0.48787 0)
(0 0.49805 0)
(0 0.508387 0)
(0 0.518884 0)
(0 0.529543 0)
(0 0.540367 0)
(0 0.551359 0)
(0 0.56252 0)
(0 0.573853 0)
(0 0.58536 0)
(0 0.597044 0)
(0 0.608907 0)
(0 0.620953 0)
(0 0.633182 0)
(-2.72278e-18 0.645597 0)
(-2.70985e-18 0.658201 0)
(0 0.670996 0)
(0 0.683984 0)
(0 0.697169 0)
(0 0.710552 0)
(0 0.724135 0)
(0 0.737921 0)
(-2.62264e-18 0.751912 0)
(0 0.76611 0)
(0 0.780517 0)
(-2.58575e-18 0.795137 0)
(0 0.809969 0)
(-2.56133e-18 0.825016 0)
(0 0.840281 0)
(-5.07473e-18 0.855765 0)
(0 0.87147 0)
(0 0.887397 0)
(0 0.903548 0)
(4.98077e-18 0.919924 0)
(0 0.936526 0)
(0 0.953356 0)
(-4.91127e-18 0.970415 0)
(0 0.987703 0)
(-4.86505e-18 1.00522 0)
(0 1.02297 0)
(0 1.04095 0)
(0 1.05916 0)
(-4.77449e-18 1.07759 0)
(-4.75255e-18 1.09626 0)
(-4.73013e-18 1.11516 0)
(4.70724e-18 1.13428 0)
(-4.68591e-18 1.15362 0)
(0 1.17319 0)
(-4.64187e-18 1.19298 0)
(0 1.21299 0)
(0 1.23321 0)
(0 1.25364 0)
(0 1.27428 0)
(0 1.29512 0)
(-4.51271e-18 1.31615 0)
(0 1.33737 0)
(0 1.35878 0)
(0 1.38035 0)
(0 1.40209 0)
(0 1.42399 0)
(0 1.44603 0)
(0 1.46821 0)
(0 1.49051 0)
(0 1.51292 0)
(-8.61198e-18 1.53542 0)
(0 1.55801 0)
(0 1.58065 0)
(0 1.60334 0)
(0 1.62606 0)
(-8.41165e-18 1.64879 0)
(0 1.6715 0)
(0 1.69418 0)
(0 1.7168 0)
(0 1.73933 0)
(0 1.76175 0)
(8.17776e-18 1.78403 0)
(0 1.80615 0)
(0 1.82807 0)
(8.06317e-18 1.84977 0)
(0 1.8712 0)
(0 1.89235 0)
(0 1.91317 0)
(0 1.93363 0)
(0 1.9537 0)
(0 1.97334 0)
(0 1.99252 0)
(0 2.0112 0)
(-3.09226e-17 2.02934 0)
(0 2.04691 0)
(0 2.06388 0)
(-1.52476e-17 2.08021 0)
(0 2.09587 0)
(0 2.11082 0)
(0 2.12504 0)
(1.49547e-17 2.1385 0)
(-1.48874e-17 2.15116 0)
(1.48207e-17 2.16301 0)
(0 2.17402 0)
(1.46891e-17 2.18416 0)
(0 2.19343 0)
(-1.45438e-17 2.20179 0)
(2.89604e-17 2.20925 0)
(0 2.21577 0)
(2.8678e-17 2.22137 0)
(0 2.22603 0)
(0 2.22975 0)
(0 2.23253 0)
(0 2.23436 0)
(-2.804e-17 2.23525 0)
(0 2.23521 0)
(0 2.23425 0)
(-2.76014e-17 2.23238 0)
(2.75154e-17 2.22961 0)
(0 2.22596 0)
(0 2.22144 0)
(0 2.21607 0)
(2.69824e-17 2.20987 0)
(0 2.20287 0)
(0 2.19509 0)
(0 2.18655 0)
(0 2.17726 0)
(0 2.16727 0)
(0 2.1566 0)
(0 2.14528 0)
(0 2.13333 0)
(0 2.12077 0)
(0 2.10764 0)
(0 2.09397 0)
(-5.10015e-17 2.07979 0)
(5.08057e-17 2.06514 0)
(-2.52574e-17 2.05002 0)
(2.51375e-17 2.03446 0)
(0 2.01852 0)
(0 2.00221 0)
(0 1.98555 0)
(0 1.96857 0)
(0 1.95131 0)
(-2.44412e-17 1.93377 0)
(0 1.91601 0)
(0 1.89804 0)
(0 1.87988 0)
(-4.7996e-17 1.86156 0)
(0 1.84309 0)
(0 1.82452 0)
(0 1.80586 0)
(-2.35496e-17 1.78712 0)
(-4.68492e-17 1.76833 0)
(0 1.74952 0)
(0 1.73071 0)
(0 1.7119 0)
(0 1.69311 0)
(0 1.67438 0)
(-4.55982e-17 1.65572 0)
(0 1.63714 0)
(0 1.61864 0)
(0 1.60025 0)
(0 1.58199 0)
(0 1.56386 0)
(0 1.54588 0)
(0 1.52807 0)
(0 1.51041 0)
(4.37156e-17 1.49294 0)
(0 1.47567 0)
(0 1.45858 0)
(0 1.44171 0)
(0 1.42504 0)
(0 1.4086 0)
(-4.24535e-17 1.39237 0)
(0 1.37638 0)
(0 1.36063 0)
(0 1.34511 0)
(0 1.32982 0)
(0 1.31478 0)
(-4.12945e-17 1.29999 0)
(0 1.28545 0)
(0 1.27117 0)
(-4.07227e-17 1.25713 0)
(-4.05357e-17 1.24335 0)
(-4.03195e-17 1.22981 0)
(-4.01361e-17 1.21651 0)
(0 1.20347 0)
(0 1.19068 0)
(0 1.17814 0)
(0 1.16584 0)
(0 1.15378 0)
(0 1.14197 0)
(0 1.13039 0)
(0 1.11905 0)
(0 1.10794 0)
(0 1.09706 0)
(-3.81409e-17 1.08641 0)
(0 1.07598 0)
(0 1.06577 0)
(0 1.05578 0)
(0 1.046 0)
(0 1.03643 0)
(0 1.02706 0)
(-3.68917e-17 1.01789 0)
(0 1.00893 0)
(0 1.00015 0)
(-3.63846e-17 0.991564 0)
(0 0.98317 0)
(0 0.974957 0)
(-7.17338e-17 0.96692 0)
(0 0.959057 0)
(0 0.951365 0)
(-3.53638e-17 0.943839 0)
(0 0.936476 0)
(0 0.929273 0)
(0 0.922227 0)
(3.46917e-17 0.915329 0)
(0 0.908581 0)
(0 0.90198 0)
(0 0.895517 0)
(0 0.889195 0)
(0 0.883005 0)
(0 0.876944 0)
(-6.71822e-17 0.871014 0)
(0 0.865209 0)
(0 0.859523 0)
(0 0.853956 0)
(0 0.848504 0)
(0 0.843165 0)
(0 0.837936 0)
(-6.49964e-17 0.832814 0)
(0 0.827793 0)
(0 0.822875 0)
(0 0.818056 0)
(0 0.813332 0)
(0 0.808699 0)
(0 0.804159 0)
(0 0.799706 0)
(0 0.795339 0)
(0 0.791058 0)
(0 0.786855 0)
(0 0.782731 0)
(0 0.778684 0)
(6.11664e-17 0.774713 0)
(0 0.770815 0)
(0 0.766987 0)
(0 0.763228 0)
(0 0.759538 0)
(5.97175e-17 0.755912 0)
(0 0.752349 0)
(0 0.748848 0)
(0 0.745407 0)
(-5.85939e-17 0.742022 0)
(0 0.738695 0)
(0 0.735424 0)
(-5.77943e-17 0.732204 0)
(0 0.729039 0)
(0 0.725925 0)
(-5.69855e-17 0.722859 0)
(5.67108e-17 0.719839 0)
(0 0.716867 0)
(0 0.713939 0)
(0 0.711054 0)
(0 0.708213 0)
(0 0.705414 0)
(0 0.702654 0)
(-5.48881e-17 0.699934 0)
(-5.46332e-17 0.697251 0)
(0 0.694606 0)
(0 0.691995 0)
(0 0.689419 0)
(-5.36097e-17 0.686878 0)
(0 0.684369 0)
(0 0.68189 0)
(5.28603e-17 0.679442 0)
(0 0.677025 0)
(0 0.674637 0)
(-5.21315e-17 0.672277 0)
(0 0.669945 0)
(0 0.667637 0)
(-1.02795e-16 0.665355 0)
(0 0.663099 0)
(0 0.660868 0)
(0 0.658659 0)
(1.00885e-16 0.656472 0)
(0 0.654309 0)
(0 0.652166 0)
(0 0.650044 0)
(0 0.647942 0)
(0 0.645859 0)
(-4.90408e-17 0.643795 0)
(-1.46377e-16 0.641748 0)
(0 0.639718 0)
(0 0.637707 0)
(0 0.635711 0)
(-9.57749e-17 0.63373 0)
(-4.76718e-17 0.631765 0)
(9.49163e-17 0.629815 0)
(0 0.62788 0)
(0 0.625959 0)
(0 0.624051 0)
(0 0.622154 0)
(0 0.620271 0)
(-9.22694e-17 0.6184 0)
(0 0.616539 0)
(0 0.61469 0)
(0 0.612851 0)
(0 0.611023 0)
(0 0.609205 0)
(-8.96901e-17 0.607395 0)
(0 0.605594 0)
(0 0.603803 0)
(-8.84537e-17 0.602021 0)
(8.80492e-17 0.600247 0)
(0 0.59848 0)
(0 0.596721 0)
(0 0.594968 0)
(-8.63967e-17 0.593222 0)
(0 0.591482 0)
(-8.55935e-17 0.589749 0)
(0 0.588022 0)
(0 0.586301 0)
(0 0.584584 0)
(1.67995e-16 0.582872 0)
(0 0.581166 0)
(0 0.579464 0)
(8.28151e-17 0.577766 0)
(0 0.576072 0)
(0 0.574383 0)
(0 0.572697 0)
(0 0.571015 0)
(0 0.569336 0)
(0 0.567659 0)
(0 0.565985 0)
(0 0.564314 0)
(-7.93994e-17 0.562646 0)
(-7.90143e-17 0.560979 0)
(0 0.559314 0)
(0 0.55765 0)
(0 0.555989 0)
(0 0.554331 0)
(0 0.552673 0)
(-7.68354e-17 0.551015 0)
(0 0.549359 0)
(0 0.547704 0)
(0 0.546049 0)
(-7.53856e-17 0.544395 0)
(0 0.542742 0)
(-7.46679e-17 0.541089 0)
(0 0.539436 0)
(0 0.537784 0)
(0 0.53613 0)
(0 0.534477 0)
(-7.29698e-17 0.532824 0)
(0 0.531171 0)
(0 0.529518 0)
(0 0.527863 0)
(0 0.526207 0)
(-7.12751e-17 0.524551 0)
(0 0.522894 0)
(0 0.521236 0)
(0 0.519578 0)
(0 0.517917 0)
(0 0.516256 0)
(-6.92699e-17 0.514593 0)
(6.89766e-17 0.512929 0)
(-6.8619e-17 0.511264 0)
(0 0.509597 0)
(0 0.507928 0)
(6.7676e-17 0.506259 0)
(0 0.504587 0)
(0 0.502914 0)
(0 0.501238 0)
(-6.64235e-17 0.499561 0)
(0 0.497882 0)
(0 0.4962 0)
(0 0.494517 0)
(-1.95529e-16 0.492832 0)
(0 0.491145 0)
(1.2916e-16 0.489456 0)
(0 0.487765 0)
(-6.3956e-17 0.48607 0)
(-6.36675e-17 0.484374 0)
(0 0.482675 0)
(0 0.480975 0)
(-1.25561e-16 0.479272 0)
(0 0.477566 0)
(0 0.475858 0)
(0 0.474148 0)
(0 0.472435 0)
(0 0.470721 0)
(0 0.469003 0)
(0 0.467283 0)
(-1.20936e-16 0.465561 0)
(0 0.463835 0)
(-1.19773e-16 0.462107 0)
(0 0.460377 0)
(0 0.458644 0)
(0 0.456909 0)
(-1.17546e-16 0.455171 0)
(0 0.453431 0)
(0 0.451688 0)
(0 0.449942 0)
(1.15368e-16 0.448194 0)
(0 0.446444 0)
(0 0.444691 0)
(1.13757e-16 0.442935 0)
(0 0.441176 0)
(0 0.439415 0)
(0 0.437652 0)
(-1.11628e-16 0.435886 0)
(-1.1113e-16 0.434117 0)
(0 0.432346 0)
(0 0.430572 0)
(0 0.428796 0)
(0 0.427017 0)
(0 0.425236 0)
(0 0.423452 0)
(0 0.421666 0)
(0 0.419878 0)
(-1.06518e-16 0.418087 0)
(0 0.416294 0)
(0 0.414499 0)
(1.05039e-16 0.412701 0)
(0 0.410901 0)
(-1.04033e-16 0.409098 0)
(0 0.407293 0)
(0 0.405487 0)
(-1.02596e-16 0.40368 0)
(0 0.40187 0)
(0 0.40006 0)
(2.02349e-16 0.39825 0)
(0 0.396439 0)
(2.00434e-16 0.394628 0)
(1.9949e-16 0.392817 0)
(-9.92772e-17 0.391023 0)
(0 0.389222 0)
(0 0.387397 0)
(0 0.385568 0)
(-9.74273e-17 0.383736 0)
(0 0.381901 0)
(-9.6517e-17 0.380064 0)
(9.60573e-17 0.378225 0)
(0 0.376384 0)
(-1.90344e-16 0.374541 0)
(0 0.372695 0)
(0 0.370849 0)
(-2.81531e-16 0.369001 0)
(0 0.367151 0)
(-1.85916e-16 0.365299 0)
(-9.25315e-17 0.363447 0)
(0 0.361593 0)
(0 0.359737 0)
(0 0.35788 0)
(0 0.356022 0)
(0 0.354163 0)
(0 0.352302 0)
(-8.95194e-17 0.35044 0)
(8.91238e-17 0.348577 0)
(0 0.346713 0)
(0 0.344848 0)
(-1.75733e-16 0.342981 0)
(0 0.341114 0)
(0 0.339246 0)
(8.66264e-17 0.337377 0)
(0 0.335507 0)
(0 0.333637 0)
(1.70842e-16 0.331765 0)
(0 0.329893 0)
(0 0.328021 0)
(0 0.326147 0)
(0 0.324274 0)
(0 0.322399 0)
(8.30424e-17 0.320524 0)
(0 0.31865 0)
(-8.22362e-17 0.316775 0)
(0 0.314898 0)
(0 0.313021 0)
(0 0.311144 0)
(-8.08238e-17 0.309269 0)
(0 0.307394 0)
(0 0.305515 0)
(0 0.303636 0)
(0 0.301761 0)
(0 0.299885 0)
(0 0.298007 0)
(-1.56279e-16 0.296129 0)
(-1.55419e-16 0.294251 0)
(-1.54851e-16 0.292375 0)
(0 0.290501 0)
(1.53171e-16 0.288626 0)
(0 0.286749 0)
(0 0.284876 0)
(0 0.283003 0)
(0 0.28113 0)
(-2.99305e-16 0.279255 0)
(0 0.277381 0)
(0 0.275509 0)
(0 0.273639 0)
(-1.47054e-16 0.27177 0)
(0 0.269901 0)
(-1.45538e-16 0.268031 0)
(0 0.266164 0)
(0 0.264298 0)
(0 0.262433 0)
(0 0.260567 0)
(0 0.258704 0)
(-2.83289e-16 0.256844 0)
(0 0.254983 0)
(0 0.253124 0)
(0 0.251265 0)
(-1.38858e-16 0.249406 0)
(-1.38404e-16 0.247551 0)
(-1.37729e-16 0.245699 0)
(0 0.243845 0)
(2.72796e-16 0.241993 0)
(0 0.240145 0)
(0 0.238297 0)
(1.3445e-16 0.236452 0)
(-1.33812e-16 0.234607 0)
(-1.33181e-16 0.232765 0)
(-1.32764e-16 0.230926 0)
(-1.31937e-16 0.22909 0)
(0 0.227253 0)
(0 0.225418 0)
(0 0.223586 0)
(0 0.221756 0)
(1.28924e-16 0.219929 0)
(1.28144e-16 0.218102 0)
(0 0.216278 0)
(0 0.214456 0)
(0 0.212638 0)
(0 0.210822 0)
(0 0.209007 0)
(1.24747e-16 0.207196 0)
(-1.24198e-16 0.205388 0)
(0 0.203582 0)
(0 0.201778 0)
(-2.44807e-16 0.199979 0)
(1.217e-16 0.198179 0)
(0 0.196384 0)
(-1.2066e-16 0.194591 0)
(-1.20147e-16 0.192802 0)
(0 0.191014 0)
(0 0.189231 0)
(1.18466e-16 0.187451 0)
(0 0.185673 0)
(0 0.183897 0)
(-2.33664e-16 0.182126 0)
(0 0.180357 0)
(-1.15715e-16 0.178592 0)
(0 0.176831 0)
(0 0.175074 0)
(-1.14002e-16 0.173318 0)
(0 0.171566 0)
(0 0.169818 0)
(-2.24976e-16 0.168074 0)
(0 0.166332 0)
(2.22903e-16 0.164594 0)
(0 0.16286 0)
(0 0.16113 0)
(-2.19723e-16 0.159404 0)
(0 0.15768 0)
(0 0.155961 0)
(0 0.154246 0)
(0 0.152535 0)
(0 0.150829 0)
(0 0.149125 0)
(-1.06278e-16 0.147426 0)
(0 0.14573 0)
(-1.05221e-16 0.144039 0)
(0 0.14235 0)
(-2.08886e-16 0.140668 0)
(0 0.13899 0)
(-1.03423e-16 0.137315 0)
(1.02795e-16 0.135645 0)
(2.04845e-16 0.133978 0)
(0 0.132317 0)
(0 0.13066 0)
(-1.00957e-16 0.129007 0)
(0 0.127358 0)
(0 0.125714 0)
(0 0.124076 0)
(-9.90682e-17 0.122442 0)
(0 0.120811 0)
(0 0.119186 0)
(-9.7697e-17 0.117565 0)
(-9.72483e-17 0.115949 0)
(0 0.114338 0)
(0 0.112732 0)
(-1.91636e-16 0.11113 0)
(0 0.109533 0)
(0 0.107941 0)
(0 0.106354 0)
(-1.8823e-16 0.104772 0)
(0 0.103196 0)
(0 0.101624 0)
(0 0.100057 0)
(-1.8474e-16 0.0984954 0)
(0 0.0969386 0)
(0 0.0953868 0)
(0 0.0938407 0)
(-1.81378e-16 0.0923004 0)
(0 0.0907652 0)
(0 0.0892344 0)
(0 0.0877088 0)
(0 0.0861892 0)
(0 0.084675 0)
(0 0.0831662 0)
(0 0.0816629 0)
(0 0.0801652 0)
(-1.7375e-16 0.078673 0)
(0 0.0771857 0)
(0 0.0757042 0)
(0 0.0742284 0)
(0 0.0727584 0)
(0 0.0712943 0)
(-1.689e-16 0.0698355 0)
(0 0.0683821 0)
(0 0.0669346 0)
(0 0.0654933 0)
(0 0.0640574 0)
(0 0.0626271 0)
(0 0.0612031 0)
(0 0.0597853 0)
(0 0.0583727 0)
(-1.61957e-16 0.0569659 0)
(0 0.0555655 0)
(0 0.054171 0)
(-1.59667e-16 0.0527824 0)
(0 0.0513999 0)
(-1.58176e-16 0.0500234 0)
(1.57441e-16 0.048653 0)
(0 0.0472888 0)
(-1.55991e-16 0.0459307 0)
(0 0.0445789 0)
(0 0.0432333 0)
(0 0.0418936 0)
(0 0.0405598 0)
(-1.52344e-16 0.0392325 0)
(-3.03324e-16 0.0379116 0)
(0 0.0365972 0)
(0 0.0352887 0)
(0 0.0339864 0)
(0 0.0326904 0)
(-1.48212e-16 0.031401 0)
(-1.47438e-16 0.0301184 0)
(-1.46672e-16 0.0288416 0)
(0 0.0275711 0)
(0 0.0263075 0)
(1.44668e-16 0.0250502 0)
(-1.43931e-16 0.0237991 0)
(0 0.0225545 0)
(0 0.0213168 0)
(0 0.0200857 0)
(0 0.0188607 0)
(0 0.0176425 0)
(0 0.0164306 0)
(-1.39429e-16 0.0152255 0)
(-1.38631e-16 0.0140272 0)
(0 0.0128354 0)
(0 0.0116503 0)
(0 0.0104715 0)
(0 0.00929974 0)
(0 0.00813454 0)
(0 0.0069761 0)
(0 0.00582446 0)
(0 0.00467936 0)
(0 0.00354121 0)
(0 0.00240983 0)
(0 0.00128527 0)
(0 0.000167318 0)
(-1.30514e-16 -0.000943657 0)
(0 -0.00204756 0)
(-1.29219e-16 -0.00314484 0)
(0 -0.00423546 0)
(-1.28047e-16 -0.00531923 0)
(0 -0.00639587 0)
(0 -0.00746566 0)
(0 -0.00852854 0)
(-2.51345e-16 -0.00958427 0)
(1.25023e-16 -0.0106334 0)
(0 -0.0116758 0)
(0 -0.012711 0)
(0 -0.0137391 0)
(0 -0.0147601 0)
(0 -0.0157744 0)
(0 -0.0167816 0)
(-1.21005e-16 -0.0177818 0)
(0 -0.018775 0)
(0 -0.019761 0)
(0 -0.02074 0)
(0 -0.0217119 0)
(0 -0.0226765 0)
(0 -0.0236341 0)
(0 -0.0245846 0)
(0 -0.025528 0)
(-2.32064e-16 -0.0264642 0)
(0 -0.0273934 0)
(0 -0.0283155 0)
(1.14387e-16 -0.0292306 0)
(0 -0.0301386 0)
(-1.13391e-16 -0.0310389 0)
(0 -0.0319319 0)
(0 -0.032818 0)
(0 -0.033697 0)
(0 -0.0345686 0)
(0 -0.0354331 0)
(0 -0.0362905 0)
(0 -0.0371406 0)
(0 -0.0379835 0)
(3.25991e-16 -0.0388192 0)
(0 -0.0396474 0)
(0 -0.0404684 0)
(0 -0.0412819 0)
(0 -0.042088 0)
(0 -0.0428868 0)
(0 -0.0436786 0)
(0 -0.0444631 0)
(-1.04637e-16 -0.04524 0)
(0 -0.0460095 0)
(0 -0.0467718 0)
(0 -0.0475269 0)
(0 -0.0482747 0)
(-2.04474e-16 -0.0490148 0)
(-2.03369e-16 -0.0497472 0)
(-2.02518e-16 -0.0504723 0)
(0 -0.0511902 0)
(0 -0.0519008 0)
(-1.99772e-16 -0.0526034 0)
(-9.93587e-17 -0.0532987 0)
(0 -0.0539868 0)
(0 -0.0546677 0)
(0 -0.0553412 0)
(0 -0.0560071 0)
(0 -0.0566652 0)
(0 -0.0573159 0)
(0 -0.057959 0)
(0 -0.0585947 0)
(0 -0.0592227 0)
(1.89599e-16 -0.0598433 0)
(0 -0.0604567 0)
(0 -0.0610624 0)
(0 -0.0616607 0)
(-1.86161e-16 -0.062251 0)
(0 -0.0628337 0)
(0 -0.0634092 0)
(0 -0.0639767 0)
(0 -0.0645365 0)
(0 -0.0650891 0)
(-1.80893e-16 -0.065634 0)
(0 -0.0661709 0)
(0 -0.0667001 0)
(0 -0.0672215 0)
(-1.77482e-16 -0.0677349 0)
(-1.76741e-16 -0.0682406 0)
(-1.75915e-16 -0.0687387 0)
(0 -0.0692296 0)
(0 -0.0697123 0)
(0 -0.0701873 0)
(-1.72688e-16 -0.0706549 0)
(0 -0.0711147 0)
(0 -0.0715664 0)
(0 -0.0720103 0)
(0 -0.0724462 0)
(0 -0.072874 0)
(0 -0.0732939 0)
(0 -0.0737062 0)
(-1.66248e-16 -0.074111 0)
(0 -0.0745076 0)
(0 -0.0748962 0)
(1.63915e-16 -0.0752772 0)
(0 -0.0756502 0)
(0 -0.0760153 0)
(0 -0.0763723 0)
(0 -0.0767212 0)
(0 -0.0770621 0)
(0 -0.0773948 0)
(0 -0.0777195 0)
(-1.57881e-16 -0.0780361 0)
(3.14298e-16 -0.0783446 0)
(0 -0.078645 0)
(0 -0.0789367 0)
(0 -0.0792203 0)
(-3.08433e-16 -0.0794957 0)
(-3.07035e-16 -0.0797624 0)
(0 -0.0800209 0)
(0 -0.0802716 0)
(0 -0.080514 0)
(0 -0.080748 0)
(-1.49917e-16 -0.080974 0)
(0 -0.0811916 0)
(0 -0.0814004 0)
(0 -0.0816007 0)
(0 -0.0817924 0)
(0 -0.0819757 0)
(0 -0.082151 0)
(0 -0.0823177 0)
(0 -0.082476 0)
(-1.43748e-16 -0.0826252 0)
(0 -0.0827658 0)
(-1.42358e-16 -0.0828977 0)
(0 -0.083021 0)
(-1.41055e-16 -0.0831355 0)
(0 -0.0832414 0)
(0 -0.0833386 0)
(1.39086e-16 -0.083427 0)
(0 -0.083507 0)
(-2.75458e-16 -0.0835776 0)
(0 -0.0836392 0)
(0 -0.0836925 0)
(0 -0.0837367 0)
(-1.35201e-16 -0.0837714 0)
(0 -0.0837971 0)
(-1.33971e-16 -0.0838138 0)
(0 -0.0838215 0)
(0 -0.0838201 0)
(0 -0.0838095 0)
(-1.31476e-16 -0.0837897 0)
(-1.30866e-16 -0.0837601 0)
(-1.30213e-16 -0.0837218 0)
(-2.5923e-16 -0.0836741 0)
(-2.58045e-16 -0.0836165 0)
(-1.28387e-16 -0.0835499 0)
(1.27806e-16 -0.0834745 0)
(0 -0.0833893 0)
(0 -0.083294 0)
(-1.26e-16 -0.0831892 0)
(0 -0.0830754 0)
(2.49678e-16 -0.0829525 0)
(2.48488e-16 -0.0828201 0)
(0 -0.0826781 0)
(0 -0.0825263 0)
(-2.45073e-16 -0.0823641 0)
(0 -0.0821922 0)
(0 -0.082011 0)
(0 -0.08182 0)
(-2.40464e-16 -0.0816185 0)
(1.1968e-16 -0.0814071 0)
(0 -0.0811864 0)
(1.18549e-16 -0.0809557 0)
(-2.36025e-16 -0.080715 0)
(1.1744e-16 -0.0804642 0)
(1.16913e-16 -0.0802034 0)
(0 -0.0799325 0)
(0 -0.0796513 0)
(0 -0.07936 0)
(0 -0.0790586 0)
(0 -0.078747 0)
(-1.13619e-16 -0.0784245 0)
(0 -0.0780918 0)
(0 -0.0777495 0)
(-1.12041e-16 -0.0773961 0)
(0 -0.0770323 0)
(-1.11013e-16 -0.0766589 0)
(-1.10471e-16 -0.0762743 0)
(0 -0.0758793 0)
(0 -0.0754747 0)
(0 -0.0750589 0)
(-1.0842e-16 -0.0746326 0)
(0 -0.0741965 0)
(0 -0.0737494 0)
(0 -0.0732919 0)
(0 -0.0728238 0)
(-1.05945e-16 -0.0723453 0)
(0 -0.0718564 0)
(-1.04928e-16 -0.0713569 0)
(0 -0.0708471 0)
(0 -0.0703268 0)
(1.03454e-16 -0.0697965 0)
(0 -0.0692559 0)
(-1.02484e-16 -0.0687042 0)
(1.02021e-16 -0.0681421 0)
(-1.01532e-16 -0.0675697 0)
(0 -0.0669868 0)
(-1.00568e-16 -0.066394 0)
(0 -0.0657903 0)
(0 -0.0651758 0)
(0 -0.0645516 0)
(0 -0.0639172 0)
(0 -0.0632725 0)
(0 -0.0626181 0)
(0 -0.0619538 0)
(0 -0.0612788 0)
(0 -0.0605937 0)
(-9.59811e-17 -0.0598994 0)
(0 -0.0591952 0)
(-9.50654e-17 -0.0584805 0)
(0 -0.0577554 0)
(0 -0.0570213 0)
(0 -0.056278 0)
(0 -0.0555253 0)
(0 -0.0547631 0)
(-9.24204e-17 -0.0539908 0)
(0 -0.0532087 0)
(-9.15711e-17 -0.0524172 0)
(0 -0.0516164 0)
(-9.0713e-17 -0.0508063 0)
(0 -0.0499879 0)
(8.98709e-17 -0.0491611 0)
(-8.94438e-17 -0.0483254 0)
(0 -0.0474803 0)
(0 -0.0466265 0)
(0 -0.0457648 0)
(0 -0.0448944 0)
(0 -0.0440156 0)
(-8.69644e-17 -0.043128 0)
(0 -0.042232 0)
(0 -0.0413286 0)
(0 -0.0404172 0)
(0 -0.0394973 0)
(-8.49369e-17 -0.0385695 0)
(0 -0.0376345 0)
(-8.41563e-17 -0.0366915 0)
(0 -0.035741 0)
(0 -0.0347831 0)
(0 -0.033818 0)
(0 -0.0328456 0)
(0 -0.031866 0)
(0 -0.0308799 0)
(0 -0.0298867 0)
(0 -0.0288864 0)
(8.06698e-17 -0.0278793 0)
(0 -0.0268651 0)
(0 -0.025844 0)
(-7.95336e-17 -0.0248164 0)
(-7.9162e-17 -0.0237815 0)
(-7.87938e-17 -0.0227402 0)
(0 -0.0216931 0)
(0 -0.0206402 0)
(0 -0.0195808 0)
(0 -0.0185152 0)
(0 -0.0174433 0)
(-7.66026e-17 -0.016365 0)
(0 -0.0152805 0)
(0 -0.0141899 0)
(-7.55436e-17 -0.0130925 0)
(-7.51749e-17 -0.011989 0)
(0 -0.0108791 0)
(-7.44644e-17 -0.00976252 0)
(-7.41386e-17 -0.00864045 0)
(0 -0.00751279 0)
(0 -0.00637824 0)
(0 -0.00523766 0)
(-7.27379e-17 -0.00409082 0)
(0 -0.00293704 0)
(0 -0.00177696 0)
(-7.17217e-17 -0.000597665 0)
)
;

boundaryField
{
    INLET
    {
        type            cyclic;
    }
    OUTLET
    {
        type            cyclic;
    }
    CENTER
    {
        type            symmetryPlane;
    }
    WALL
    {
        type            extrapolatedCalculated;
        value           uniform (1.63797e-23 0.00179312 0);
    }
    frontAndBackPlanes
    {
        type            empty;
    }
}


// ************************************************************************* //
