/*--------------------------------*- C++ -*----------------------------------*\
| =========                 |                                                 |
| \\      /  F ield         | OpenFOAM: The Open Source CFD Toolbox           |
|  \\    /   O peration     | Version:  v1806                                 |
|   \\  /    A nd           | Web:      www.OpenFOAM.com                      |
|    \\/     M anipulation  |                                                 |
\*---------------------------------------------------------------------------*/
FoamFile
{
    version     2.0;
    format      ascii;
    class       volVectorField;
    location    "10000";
    object      grad(p);
}
// * * * * * * * * * * * * * * * * * * * * * * * * * * * * * * * * * * * * * //

dimensions      [0 1 -2 0 0 0 0];


internalField   nonuniform List<vector> 
1025
(
(1.95262e-30 5.73329e-11 0)
(0 6.91178e-11 0)
(0 9.59047e-12 0)
(-1.54025e-29 -3.41225e-12 0)
(0 -8.57499e-13 0)
(0 9.24446e-13 0)
(-7.5934e-30 9.27711e-13 0)
(0 5.8069e-13 0)
(1.50448e-29 3.65556e-13 0)
(0 2.62984e-13 0)
(0 2.10486e-13 0)
(0 1.82067e-13 0)
(0 1.67378e-13 0)
(-1.46958e-29 1.59856e-13 0)
(-1.46269e-29 1.55456e-13 0)
(0 1.52437e-13 0)
(0 1.49897e-13 0)
(0 1.47617e-13 0)
(0 1.45599e-13 0)
(-1.42873e-29 1.43612e-13 0)
(0 1.41732e-13 0)
(0 1.40176e-13 0)
(0 1.38732e-13 0)
(0 1.37166e-13 0)
(1.39557e-29 1.35848e-13 0)
(0 1.34745e-13 0)
(0 1.33403e-13 0)
(0 1.31968e-13 0)
(0 1.30694e-13 0)
(0 1.29445e-13 0)
(0 1.28156e-13 0)
(1.35066e-29 1.2709e-13 0)
(0 1.25891e-13 0)
(-1.33775e-29 1.24427e-13 0)
(0 1.23169e-13 0)
(0 1.22156e-13 0)
(0 1.21117e-13 0)
(0 1.20097e-13 0)
(0 1.1892e-13 0)
(0 1.1755e-13 0)
(0 1.16452e-13 0)
(0 1.15362e-13 0)
(0 1.14049e-13 0)
(0 1.13194e-13 0)
(0 1.12411e-13 0)
(0 1.11264e-13 0)
(-1.25858e-29 1.09939e-13 0)
(0 1.08765e-13 0)
(0 1.07899e-13 0)
(0 1.06927e-13 0)
(0 1.05888e-13 0)
(0 1.05121e-13 0)
(0 1.04442e-13 0)
(-2.43616e-29 1.03136e-13 0)
(0 1.0183e-13 0)
(0 1.01075e-13 0)
(0 1.00304e-13 0)
(0 9.93399e-14 0)
(0 9.84526e-14 0)
(0 9.74509e-14 0)
(-1.17849e-29 9.62631e-14 0)
(0 9.5445e-14 0)
(0 9.46389e-14 0)
(0 9.37574e-14 0)
(0 9.26926e-14 0)
(0 9.19021e-14 0)
(0 9.14612e-14 0)
(0 9.08309e-14 0)
(-1.13493e-29 8.99464e-14 0)
(-1.12982e-29 8.88177e-14 0)
(-1.12433e-29 8.77068e-14 0)
(0 8.65393e-14 0)
(1.11392e-29 8.5905e-14 0)
(2.21718e-29 8.58048e-14 0)
(0 8.51208e-14 0)
(0 8.37458e-14 0)
(0 8.27566e-14 0)
(0 8.21883e-14 0)
(0 8.14937e-14 0)
(0 8.08072e-14 0)
(0 8.01897e-14 0)
(0 7.93805e-14 0)
(0 7.83236e-14 0)
(0 7.74677e-14 0)
(0 7.68773e-14 0)
(0 7.6294e-14 0)
(0 7.57128e-14 0)
(0 7.48276e-14 0)
(0 7.40087e-14 0)
(0 7.35692e-14 0)
(0 7.30749e-14 0)
(0 7.21644e-14 0)
(0 7.12586e-14 0)
(0 7.07732e-14 0)
(0 7.03476e-14 0)
(0 6.95869e-14 0)
(0 6.87813e-14 0)
(-1.98108e-29 6.82049e-14 0)
(0 6.75762e-14 0)
(-1.96267e-29 6.67407e-14 0)
(1.95343e-29 6.61824e-14 0)
(0 6.58426e-14 0)
(0 6.5184e-14 0)
(0 6.45869e-14 0)
(0 6.42575e-14 0)
(-9.54111e-30 6.35215e-14 0)
(-1.89919e-29 6.22713e-14 0)
(9.44973e-30 6.18984e-14 0)
(0 6.18956e-14 0)
(0 6.14353e-14 0)
(0 6.05821e-14 0)
(0 5.97374e-14 0)
(-1.84618e-29 5.89032e-14 0)
(1.83772e-29 5.83183e-14 0)
(0 5.84625e-14 0)
(0 5.81281e-14 0)
(9.05996e-30 5.79794e-14 0)
(-9.01788e-30 5.75569e-14 0)
(0 5.63926e-14 0)
(0 5.56138e-14 0)
(0 5.5387e-14 0)
(-1.7699e-29 5.51638e-14 0)
(0 5.42293e-14 0)
(0 5.35686e-14 0)
(0 5.35306e-14 0)
(-1.73695e-29 5.31505e-14 0)
(-8.64483e-30 5.23439e-14 0)
(-1.72081e-29 5.14575e-14 0)
(0 5.14235e-14 0)
(-1.70472e-29 5.13192e-14 0)
(0 5.06265e-14 0)
(-1.6887e-29 5.01049e-14 0)
(0 4.96708e-14 0)
(-1.67298e-29 4.91689e-14 0)
(0 4.87501e-14 0)
(0 4.8419e-14 0)
(0 4.80877e-14 0)
(0 4.75298e-14 0)
(0 4.66678e-14 0)
(0 4.67426e-14 0)
(0 4.66678e-14 0)
(0 4.61325e-14 0)
(0 4.65809e-14 0)
(-1.59622e-29 4.6288e-14 0)
(0 4.4738e-14 0)
(0 4.4529e-14 0)
(-1.57388e-29 4.47665e-14 0)
(-1.56651e-29 4.42025e-14 0)
(0 4.39346e-14 0)
(-1.55197e-29 4.36074e-14 0)
(0 4.32108e-14 0)
(0 4.31702e-14 0)
(0 4.27875e-14 0)
(0 4.23434e-14 0)
(0 4.21848e-14 0)
(0 4.18275e-14 0)
(1.50163e-29 4.12742e-14 0)
(0 4.04636e-14 0)
(2.97505e-29 4.13931e-14 0)
(0 4.18003e-14 0)
(0 4.00886e-14 0)
(1.46668e-29 3.99707e-14 0)
(0 4.02602e-14 0)
(0 3.97729e-14 0)
(0 3.96776e-14 0)
(0 3.99751e-14 0)
(0 3.92613e-14 0)
(0 3.85555e-14 0)
(0 3.9134e-14 0)
(0 3.89633e-14 0)
(0 3.76456e-14 0)
(0 3.72161e-14 0)
(0 3.79549e-14 0)
(-1.38676e-29 3.78372e-14 0)
(-1.3804e-29 3.69576e-14 0)
(-1.37253e-29 3.60921e-14 0)
(-1.36785e-29 3.50102e-14 0)
(1.36012e-29 3.61218e-14 0)
(-1.354e-29 3.68796e-14 0)
(0 3.64423e-14 0)
(-1.34192e-29 3.60196e-14 0)
(0 3.59512e-14 0)
(0 3.66049e-14 0)
(0 3.57133e-14 0)
(0 3.57962e-14 0)
(0 3.65999e-14 0)
(1.30412e-29 3.71874e-14 0)
(-1.2985e-29 3.68392e-14 0)
(0 3.58838e-14 0)
(0 3.61117e-14 0)
(0 3.67231e-14 0)
(0 3.69995e-14 0)
(-1.26706e-29 3.69137e-14 0)
(-2.52614e-29 3.62325e-14 0)
(-2.51034e-29 3.49565e-14 0)
(0 3.58651e-14 0)
(1.2435e-29 3.79962e-14 0)
(0 3.75923e-14 0)
(0 3.63354e-14 0)
(0 3.71716e-14 0)
(0 3.82752e-14 0)
(0 3.82623e-14 0)
(-1.20975e-29 3.77488e-14 0)
(0 3.84947e-14 0)
(-2.39782e-29 3.91391e-14 0)
(-1.19297e-29 3.79207e-14 0)
(0 3.74504e-14 0)
(0 3.82366e-14 0)
(0 3.88978e-14 0)
(0 4.03488e-14 0)
(-1.16525e-29 4.10522e-14 0)
(0 3.99847e-14 0)
(0 4.04546e-14 0)
(0 4.03853e-14 0)
(0 4.03459e-14 0)
(0 4.13775e-14 0)
(0 4.16144e-14 0)
(0 4.15779e-14 0)
(0 4.18254e-14 0)
(0 4.28738e-14 0)
(-1.11146e-29 4.31439e-14 0)
(-1.10737e-29 4.28987e-14 0)
(0 4.26243e-14 0)
(0 4.26252e-14 0)
(0 4.23485e-14 0)
(2.1708e-29 4.26404e-14 0)
(0 4.40653e-14 0)
(0 4.63522e-14 0)
(-1.07091e-29 4.60847e-14 0)
(-2.13045e-29 4.3276e-14 0)
(0 4.39022e-14 0)
(0 4.59522e-14 0)
(-1.05035e-29 4.62635e-14 0)
(0 4.7508e-14 0)
(0 4.90733e-14 0)
(-2.07357e-29 4.58549e-14 0)
(0 4.40915e-14 0)
(0 4.68386e-14 0)
(0 4.90285e-14 0)
(-1.01664e-29 4.90942e-14 0)
(-1.01237e-29 4.79256e-14 0)
(0 4.86192e-14 0)
(-1.00309e-29 4.80295e-14 0)
(0 4.58565e-14 0)
(9.93977e-30 4.91181e-14 0)
(0 5.20599e-14 0)
(0 5.08333e-14 0)
(0 5.02421e-14 0)
(0 5.03e-14 0)
(9.70731e-30 5.2022e-14 0)
(-1.93056e-29 5.20618e-14 0)
(0 5.07789e-14 0)
(0 5.04832e-14 0)
(1.9046e-29 5.2219e-14 0)
(0 5.49971e-14 0)
(-1.88669e-29 5.50641e-14 0)
(-1.87786e-29 5.47867e-14 0)
(-1.86911e-29 5.55424e-14 0)
(-1.86044e-29 5.80841e-14 0)
(-9.25928e-30 5.88474e-14 0)
(-2.76502e-29 5.63633e-14 0)
(0 5.71025e-14 0)
(-9.1259e-30 5.89419e-14 0)
(0 5.89898e-14 0)
(-9.04362e-30 5.90301e-14 0)
(0 6.0171e-14 0)
(0 6.20478e-14 0)
(0 6.32045e-14 0)
(0 6.43699e-14 0)
(-1.76626e-29 6.39916e-14 0)
(0 6.36091e-14 0)
(0 6.51511e-14 0)
(0 6.78932e-14 0)
(-1.73445e-29 6.79029e-14 0)
(0 6.35449e-14 0)
(0 6.35032e-14 0)
(0 6.78344e-14 0)
(0 6.81813e-14 0)
(0 7.05598e-14 0)
(-1.68586e-29 7.41615e-14 0)
(-1.67764e-29 6.8421e-14 0)
(-1.6695e-29 6.30352e-14 0)
(0 6.66341e-14 0)
(0 6.86089e-14 0)
(0 7.10184e-14 0)
(-1.63881e-29 7.50667e-14 0)
(-1.63104e-29 6.61689e-14 0)
(0 6.48021e-14 0)
(0 7.68662e-14 0)
(-1.60816e-29 7.88578e-14 0)
(-1.60067e-29 7.15185e-14 0)
(0 6.66873e-14 0)
(0 7.03568e-14 0)
(0 7.66183e-14 0)
(0 7.77532e-14 0)
(0 7.54226e-14 0)
(0 7.56736e-14 0)
(-1.54917e-29 7.32954e-14 0)
(0 7.17708e-14 0)
(0 7.54965e-14 0)
(-1.52755e-29 7.48387e-14 0)
(0 7.32845e-14 0)
(0 7.52438e-14 0)
(0 7.63219e-14 0)
(0 7.47356e-14 0)
(0 7.31413e-14 0)
(0 7.8675e-14 0)
(-1.47785e-29 8.06182e-14 0)
(-1.47062e-29 7.36137e-14 0)
(0 7.28832e-14 0)
(0 7.75191e-14 0)
(-1.45025e-29 7.4937e-14 0)
(0 7.14634e-14 0)
(0 7.33957e-14 0)
(0 7.44107e-14 0)
(0 7.45301e-14 0)
(0 7.55391e-14 0)
(0 7.65297e-14 0)
(0 7.11575e-14 0)
(1.39641e-29 7.12514e-14 0)
(0 8.13713e-14 0)
(-1.38357e-29 8.05265e-14 0)
(0 7.51124e-14 0)
(0 7.61036e-14 0)
(0 7.61606e-14 0)
(1.35782e-29 8.16993e-14 0)
(0 8.26661e-14 0)
(0 7.81304e-14 0)
(0 7.99796e-14 0)
(-1.33227e-29 7.63325e-14 0)
(0 7.36153e-14 0)
(0 7.82146e-14 0)
(-1.31409e-29 7.73141e-14 0)
(0 7.64266e-14 0)
(0 8.10177e-14 0)
(0 7.64011e-14 0)
(0 7.54698e-14 0)
(0 8.18854e-14 0)
(0 8.46099e-14 0)
(-1.27174e-29 8.00029e-14 0)
(0 7.53954e-14 0)
(0 7.99474e-14 0)
(0 8.54081e-14 0)
(-1.24801e-29 8.35333e-14 0)
(0 7.7075e-14 0)
(0 8.06728e-14 0)
(0 8.33559e-14 0)
(0 8.42143e-14 0)
(-1.21894e-29 7.86713e-14 0)
(2.42683e-29 7.40192e-14 0)
(0 7.48545e-14 0)
(1.2019e-29 8.02424e-14 0)
(1.19653e-29 9.10838e-14 0)
(0 9.09844e-14 0)
(-1.18533e-29 8.36207e-14 0)
(0 7.9877e-14 0)
(0 8.33861e-14 0)
(-2.33729e-29 8.05784e-14 0)
(0 7.86714e-14 0)
(0 7.76624e-14 0)
(0 7.39349e-14 0)
(1.14693e-29 7.83163e-14 0)
(0 8.08974e-14 0)
(0 7.8076e-14 0)
(0 7.70498e-14 0)
(0 7.95962e-14 0)
(0 8.92592e-14 0)
(-1.11506e-29 8.91044e-14 0)
(-3.32822e-29 6.76332e-14 0)
(1.10482e-29 6.57196e-14 0)
(0 8.41752e-14 0)
(0 9.45923e-14 0)
(-2.17767e-29 8.0323e-14 0)
(0 5.72937e-14 0)
(1.07907e-29 6.59404e-14 0)
(0 7.80758e-14 0)
(0 8.22703e-14 0)
(0 7.94805e-14 0)
(0 7.23291e-14 0)
(0 7.47755e-14 0)
(-2.09796e-29 7.11472e-14 0)
(0 6.7506e-14 0)
(0 7.25049e-14 0)
(0 7.57788e-14 0)
(0 7.21756e-14 0)
(0 7.02669e-14 0)
(0 6.66763e-14 0)
(0 6.81962e-14 0)
(0 7.82169e-14 0)
(0 7.63398e-14 0)
(0 7.10644e-14 0)
(-1.99207e-29 6.75003e-14 0)
(0 6.7299e-14 0)
(0 7.54784e-14 0)
(0 7.86147e-14 0)
(0 7.34014e-14 0)
(0 6.48969e-14 0)
(0 6.47009e-14 0)
(0 6.78201e-14 0)
(0 5.61026e-14 0)
(1.90989e-29 6.57379e-14 0)
(-1.90084e-29 7.54027e-14 0)
(0 6.04845e-14 0)
(0 6.51524e-14 0)
(0 7.30738e-14 0)
(0 7.12316e-14 0)
(0 6.4579e-14 0)
(0 5.95409e-14 0)
(0 6.25422e-14 0)
(0 6.55318e-14 0)
(0 7.00899e-14 0)
(0 6.98676e-14 0)
(-1.80533e-29 6.01617e-14 0)
(-1.79658e-29 5.05036e-14 0)
(0 5.03183e-14 0)
(0 5.48455e-14 0)
(0 5.77823e-14 0)
(0 6.22407e-14 0)
(-1.75467e-29 6.04854e-14 0)
(0 5.25573e-14 0)
(0 5.38939e-14 0)
(-1.73071e-29 5.37191e-14 0)
(0 5.19845e-14 0)
(0 4.726e-14 0)
(1.70678e-29 5.00916e-14 0)
(-1.69775e-29 5.44631e-14 0)
(0 4.5237e-14 0)
(0 4.6551e-14 0)
(0 5.53262e-14 0)
(-1.66661e-29 5.66285e-14 0)
(-1.65914e-29 4.75432e-14 0)
(0 4.73392e-14 0)
(0 4.86421e-14 0)
(0 4.8433e-14 0)
(0 5.70025e-14 0)
(-1.62061e-29 5.39033e-14 0)
(0 5.0777e-14 0)
(0 5.05963e-14 0)
(0 4.89439e-14 0)
(0 5.44711e-14 0)
(0 5.85326e-14 0)
(0 5.26416e-14 0)
(0 5.66377e-14 0)
(-1.56022e-29 6.34731e-14 0)
(0 6.04016e-14 0)
(0 5.32022e-14 0)
(1.53877e-29 5.29499e-14 0)
(0 6.10606e-14 0)
(0 6.21864e-14 0)
(0 6.46725e-14 0)
(-1.5103e-29 5.75817e-14 0)
(0 5.05106e-14 0)
(0 5.97821e-14 0)
(0 7.43889e-14 0)
(-2.96388e-29 5.39684e-14 0)
(0 2.82372e-14 0)
(1.46838e-29 5.47444e-14 0)
(0 7.84638e-14 0)
(0 6.49181e-14 0)
(-1.44763e-29 5.01388e-14 0)
(0 5.64559e-14 0)
(0 7.44904e-14 0)
(-2.85492e-29 6.25305e-14 0)
(-1.4203e-29 3.76283e-14 0)
(0 4.13052e-14 0)
(0 5.13996e-14 0)
(0 5.75567e-14 0)
(0 6.49253e-14 0)
(-2.77512e-29 5.20211e-14 0)
(0 5.17167e-14 0)
(-1.37488e-29 5.40623e-14 0)
(0 4.50308e-14 0)
(-1.36166e-29 5.10452e-14 0)
(0 5.32908e-14 0)
(0 4.69152e-14 0)
(1.34305e-29 4.78917e-14 0)
(0 5.25793e-14 0)
(0 4.86837e-14 0)
(0 4.60475e-14 0)
(0 3.14161e-14 0)
(1.31158e-29 4.79455e-14 0)
(0 6.92699e-14 0)
(0 5.47066e-14 0)
(1.29326e-29 5.20524e-14 0)
(0 5.41713e-14 0)
(0 5.15777e-14 0)
(0 5.3662e-14 0)
(0 5.34141e-14 0)
(-2.5268e-29 4.85423e-14 0)
(0 5.05894e-14 0)
(0 5.26544e-14 0)
(0 4.78558e-14 0)
(0 4.08366e-14 0)
(0 4.73585e-14 0)
(0 5.83652e-14 0)
(0 5.80816e-14 0)
(0 6.00147e-14 0)
(0 5.75319e-14 0)
(0 4.84572e-14 0)
(0 3.94672e-14 0)
(2.38831e-29 5.87964e-14 0)
(0 7.15866e-14 0)
(0 5.39768e-14 0)
(0 4.94019e-14 0)
(0 5.55529e-14 0)
(0 5.31766e-14 0)
(0 4.65561e-14 0)
(0 4.63268e-14 0)
(0 5.02689e-14 0)
(0 4.79571e-14 0)
(0 4.56175e-14 0)
(0 5.74478e-14 0)
(0 5.71999e-14 0)
(0 4.90254e-14 0)
(0 4.87762e-14 0)
(0 5.05384e-14 0)
(0 5.22967e-14 0)
(0 4.60539e-14 0)
(0 3.38886e-14 0)
(2.18409e-29 4.15734e-14 0)
(0 6.30212e-14 0)
(-2.16397e-29 4.90692e-14 0)
(-2.15332e-29 2.92781e-14 0)
(0 4.45971e-14 0)
(-2.13376e-29 3.67491e-14 0)
(0 2.68841e-14 0)
(0 3.82173e-14 0)
(-2.10392e-29 3.42353e-14 0)
(-2.09386e-29 2.46235e-14 0)
(0 2.6336e-14 0)
(0 3.36891e-14 0)
(0 3.16602e-14 0)
(0 3.14827e-14 0)
(0 3.49899e-14 0)
(0 2.56963e-14 0)
(0 2.18767e-14 0)
(0 3.44256e-14 0)
(0 4.68281e-14 0)
(-1.99785e-29 3.41238e-14 0)
(0 8.98499e-15 0)
(0 5.37704e-15 0)
(1.96966e-29 2.81882e-14 0)
(0 4.38706e-14 0)
(0 3.31807e-14 0)
(0 3.47013e-14 0)
(-1.93328e-29 3.28348e-14 0)
(0 2.40637e-14 0)
(0 2.56316e-14 0)
(0 1.8739e-14 0)
(0 9.47922e-17 0)
(3.77633e-29 2.17904e-14 0)
(0 5.17864e-14 0)
(-1.86983e-29 2.99793e-14 0)
(-1.8626e-29 3.38226e-15 0)
(0 4.9614e-15 0)
(0 1.96314e-14 0)
(0 1.63281e-14 0)
(-1.82726e-29 1.61627e-14 0)
(0 1.13256e-14 0)
(0 3.24015e-15 0)
(0 1.90871e-14 0)
(0 2.05999e-14 0)
(0 2.35477e-14 0)
(0 3.90264e-14 0)
(-1.76691e-29 2.64698e-14 0)
(-1.76045e-29 -1.07019e-14 0)
(0 -2.4523e-14 0)
(1.74135e-29 3.03853e-15 0)
(0 1.97862e-14 0)
(0 1.2144e-14 0)
(0 1.50443e-14 0)
(0 2.6867e-14 0)
(-3.4027e-29 6.05554e-15 0)
(0 -1.32249e-14 0)
(0 5.8927e-15 0)
(0 2.62908e-14 0)
(-3.34363e-29 2.04059e-14 0)
(0 8.69125e-15 0)
(-3.30916e-29 -2.77164e-15 0)
(0 1.18114e-17 0)
(0 1.42324e-14 0)
(-1.63214e-29 9.06773e-17 0)
(0 2.64263e-17 0)
(0 2.23114e-14 0)
(-1.61031e-29 1.12031e-14 0)
(0 -1.37003e-14 0)
(0 -1.6357e-14 0)
(1.58643e-29 1.35518e-14 0)
(0 3.25171e-14 0)
(-1.57347e-29 1.08388e-14 0)
(-1.5658e-29 -1.06031e-14 0)
(0 -2.1193e-14 0)
(1.55067e-29 7.90243e-15 0)
(0 2.63482e-14 0)
(0 7.90734e-15 0)
(0 2.33368e-14 0)
(0 4.64883e-14 0)
(-3.02819e-29 2.83219e-14 0)
(-3.0187e-29 -2.46525e-15 0)
(-1.49995e-29 -1.51672e-14 0)
(0 -2.26037e-14 0)
(0 -1.50227e-14 0)
(0 7.49697e-15 0)
(0 7.49665e-15 0)
(1.4657e-29 2.49898e-15 0)
(0 1.22466e-14 0)
(0 1.46416e-14 0)
(0 9.71277e-15 0)
(0 1.44494e-14 0)
(-2.86171e-29 1.09786e-16 0)
(0 -1.42069e-14 0)
(2.83642e-29 1.17843e-14 0)
(-2.82394e-29 1.88546e-14 0)
(-2.80748e-29 5.80287e-17 0)
(0 1.6211e-14 0)
(-2.78314e-29 2.4769e-15 0)
(0 -6.8901e-15 0)
(0 3.63921e-14 0)
(-2.74349e-29 3.17754e-14 0)
(0 -8.88557e-15 0)
(2.7164e-29 -4.48394e-15 0)
(0 1.55982e-14 0)
(2.69361e-29 2.20803e-14 0)
(0 3.7281e-14 0)
(0 5.0136e-14 0)
(-5.31291e-29 2.82891e-14 0)
(0 1.07713e-14 0)
(0 1.7175e-14 0)
(0 2.12932e-14 0)
(0 3.17356e-14 0)
(0 1.89795e-14 0)
(2.58168e-29 1.46241e-14 0)
(0 3.73607e-14 0)
(-2.55768e-29 3.10323e-14 0)
(0 6.20246e-15 0)
(2.53412e-29 2.84494e-14 0)
(0 5.66891e-14 0)
(0 5.63453e-14 0)
(-2.49796e-29 3.2087e-14 0)
(0 1.39142e-14 0)
(0 2.56704e-14 0)
(0 3.14222e-14 0)
(0 3.12369e-14 0)
(0 3.29674e-14 0)
(0 3.85078e-14 0)
(0 3.44729e-14 0)
(0 3.60977e-14 0)
(0 3.96821e-14 0)
(-2.38358e-29 3.56774e-14 0)
(-2.37476e-29 3.1765e-14 0)
(0 3.33644e-14 0)
(-2.35156e-29 2.40176e-14 0)
(2.33729e-29 9.17034e-15 0)
(2.32881e-29 3.268e-14 0)
(0 5.42158e-14 0)
(0 5.74394e-14 0)
(-2.29551e-29 4.10962e-14 0)
(0 1.42244e-14 0)
(0 1.9364e-14 0)
(0 3.67644e-14 0)
(0 4.00118e-14 0)
(-2.24206e-29 2.94023e-14 0)
(0 3.08683e-14 0)
(-2.22137e-29 3.92321e-14 0)
(-2.21117e-29 2.04061e-14 0)
(0 5.07443e-15 0)
(0 2.17079e-14 0)
(0 3.15939e-14 0)
(0 1.82063e-14 0)
(0 2.12992e-14 0)
(0 2.93512e-14 0)
(-2.13992e-29 1.30167e-14 0)
(0 1.28471e-14 0)
(0 3.83042e-14 0)
(-2.10945e-29 2.86493e-14 0)
(0 3.19175e-15 0)
(0 1.56269e-14 0)
(-2.07984e-29 2.49298e-14 0)
(0 2.78277e-14 0)
(-2.06202e-29 3.38327e-14 0)
(0 1.53365e-14 0)
(0 6.06396e-15 0)
(0 1.50642e-14 0)
(0 1.79696e-14 0)
(0 1.78512e-14 0)
(0 2.94979e-14 0)
(-3.98743e-29 2.35374e-14 0)
(0 8.75356e-15 0)
(-3.95063e-29 2.95005e-15 0)
(0 7.33645e-18 0)
(0 4.45006e-17 0)
(0 -2.81813e-15 0)
(0 5.64086e-15 0)
(0 1.12154e-14 0)
(0 2.83263e-15 0)
(0 7.4686e-18 0)
(0 8.23941e-15 0)
(0 5.48943e-15 0)
(0 8.10685e-15 0)
(0 1.07839e-14 0)
(-1.86802e-29 -5.27955e-15 0)
(0 -5.31695e-15 0)
(0 1.83938e-14 0)
(-1.84123e-29 1.83588e-14 0)
(-3.66495e-29 2.62874e-15 0)
(0 2.32174e-17 0)
(-1.8152e-29 -2.52926e-15 0)
(0 5.49547e-18 0)
(-1.79825e-29 -1.00314e-14 0)
(3.5798e-29 -2.56309e-15 0)
(-1.78162e-29 1.4994e-14 0)
(-3.54683e-29 5.52252e-17 0)
(-1.76529e-29 -1.47169e-14 0)
(0 -1.22148e-14 0)
(0 -7.24119e-15 0)
(-3.47955e-29 -9.60644e-15 0)
(0 -4.77666e-15 0)
(-5.1726e-29 -2.12885e-14 0)
(0 -3.30421e-14 0)
(0 -1.87335e-14 0)
(0 -1.16142e-14 0)
(0 -2.31152e-15 0)
(0 -4.53898e-15 0)
(-3.35236e-29 -2.04586e-14 0)
(-3.33494e-29 -3.38788e-14 0)
(0 -2.92177e-14 0)
(0 -1.78299e-14 0)
(0 -1.10803e-14 0)
(-1.6363e-29 -1.75247e-14 0)
(0 -2.83823e-14 0)
(0 -2.38566e-14 0)
(0 -1.72315e-14 0)
(0 -6.42001e-15 0)
(-1.59961e-29 -1.05586e-14 0)
(0 -2.52651e-14 0)
(0 -2.72081e-14 0)
(-1.57605e-29 -2.70018e-14 0)
(0 -2.47685e-14 0)
(0 -1.84384e-14 0)
(0 -1.62666e-14 0)
(0 -2.05528e-15 0)
(0 2.06052e-15 0)
(0 -1.78742e-14 0)
(-3.04977e-29 -3.35813e-14 0)
(3.03774e-29 -1.77311e-14 0)
(0 -5.80068e-15 0)
(0 -2.1266e-14 0)
(0 -2.11508e-14 0)
(0 -9.54469e-15 0)
(-2.96753e-29 -5.6632e-15 0)
(0 3.73664e-15 0)
(-2.93811e-29 -1.66706e-14 0)
(0 -3.3406e-14 0)
(0 -1.47246e-14 0)
(-2.89831e-29 -1.45924e-14 0)
(-2.88313e-29 -1.99388e-14 0)
(0 -1.62216e-14 0)
(0 -1.7842e-14 0)
(0 -1.59914e-14 0)
(0 -7.03396e-15 0)
(0 -8.73074e-15 0)
(0 -1.21446e-14 0)
(0 -1.55013e-14 0)
(0 -3.45969e-15 0)
(0 1.74389e-15 0)
(0 -1.34563e-14 0)
(0 -1.34076e-14 0)
(0 -3.32348e-15 0)
(0 -1.31372e-14 0)
(0 -1.96662e-14 0)
(-2.68797e-29 -1.62392e-14 0)
(0 -1.2927e-14 0)
(0 -6.39577e-15 0)
(0 -9.8691e-18 0)
(-2.63826e-29 -1.56922e-14 0)
(0 -4.07158e-14 0)
(0 -4.35313e-14 0)
(2.60085e-29 -6.29928e-15 0)
(0 1.53904e-14 0)
(-2.57822e-29 -1.21146e-14 0)
(0 -2.11381e-14 0)
(0 -1.49826e-14 0)
(0 -8.92269e-15 0)
(0 -2.95182e-15 0)
(0 -8.74531e-15 0)
(0 -1.45408e-14 0)
(0 -1.72862e-14 0)
(0 -3.14727e-14 0)
(2.47072e-29 -2.97463e-15 0)
(0 1.98181e-14 0)
(0 2.82193e-15 0)
(0 -5.52837e-15 0)
(-2.42408e-29 -1.37701e-14 0)
(-2.41193e-29 -1.91369e-14 0)
(0 -1.63097e-14 0)
(2.39097e-29 5.34354e-15 0)
(-2.37916e-29 -5.23593e-15 0)
(0 -2.12749e-14 0)
(0 -7.90711e-15 0)
(0 -2.61598e-15 0)
(0 1.03533e-14 0)
(-2.3246e-29 7.78753e-15 0)
(-2.31204e-29 -1.52847e-14 0)
(0 -2.28269e-14 0)
(0 -7.59075e-15 0)
(0 1.49636e-14 0)
(-2.27114e-29 5.04544e-15 0)
(0 -1.72016e-14 0)
(0 -1.22225e-14 0)
(0 -9.59127e-18 0)
(0 9.60419e-15 0)
(0 7.19141e-15 0)
(0 -4.70567e-15 0)
(0 2.31235e-15 0)
(-2.18607e-29 1.3989e-14 0)
(-2.17619e-29 -4.54085e-15 0)
(0 -1.83561e-14 0)
(0 -4.57737e-15 0)
(0 4.52471e-15 0)
(0 4.4895e-15 0)
(0 4.45534e-15 0)
(0 -2.17142e-15 0)
(0 -4.3869e-15 0)
(2.09568e-29 8.66137e-15 0)
(-2.0866e-29 4.36755e-15 0)
(0 -4.28627e-15 0)
(0 6.34406e-15 0)
(0 8.43927e-15 0)
(0 2.10252e-15 0)
(0 1.23885e-14 0)
(-2.02836e-29 2.05742e-14 0)
(-2.01774e-29 1.22531e-14 0)
(-2.00932e-29 2.05248e-15 0)
(0 -1.19994e-14 0)
(0 -9.9847e-15 0)
(0 7.87483e-15 0)
(0 1.56818e-14 0)
(0 -7.67782e-15 0)
(0 -1.16448e-14 0)
(0 9.56175e-15 0)
(0 1.32829e-14 0)
(-1.92593e-29 9.44193e-15 0)
(0 -3.69742e-15 0)
(-1.90781e-29 -1.84876e-14 0)
(0 -1.10793e-14 0)
(-1.89002e-29 -3.60914e-15 0)
(-1.88079e-29 -2.52469e-14 0)
(0 -3.76662e-14 0)
(1.8635e-29 -1.7859e-14 0)
(0 -5.26952e-15 0)
(0 -1.39864e-14 0)
(0 -1.38983e-14 0)
(0 -6.89713e-15 0)
(0 -1.36215e-14 0)
(0 -2.2033e-14 0)
(1.80331e-29 -1.01217e-14 0)
(-1.7949e-29 -2.65666e-14 0)
(1.78658e-29 -1.83295e-14 0)
(0 1.64134e-14 0)
(0 4.93488e-15 0)
(0 9.62103e-15 0)
(-3.50647e-29 9.67349e-15 0)
(0 -1.74151e-14 0)
(-3.47327e-29 -3.61814e-14 0)
(0 -2.5061e-14 0)
(-1.72035e-29 -7.73402e-15 0)
(0 -1.56317e-15 0)
(0 -6.04159e-15 0)
(0 -6.09105e-15 0)
(-1.68867e-29 6.00084e-15 0)
(-1.68057e-29 8.91296e-15 0)
(-3.34653e-29 5.35785e-17 0)
(0 -1.16941e-14 0)
(0 -4.4223e-17 0)
(0 2.91596e-15 0)
(0 2.82309e-15 0)
(-1.63422e-29 5.68744e-15 0)
(0 1.11816e-14 0)
(-1.61843e-29 1.39522e-14 0)
(0 2.77452e-15 0)
(-1.60361e-29 3.77078e-18 0)
(0 8.11295e-15 0)
(-1.5884e-29 2.7518e-15 0)
(0 1.32545e-14 0)
(0 4.76127e-14 0)
(-1.5658e-29 1.59292e-14 0)
(0 -1.04746e-14 0)
(0 2.57396e-14 0)
(0 4.35415e-14 0)
(-4.61117e-29 1.28151e-14 0)
(0 -5.07298e-15 0)
(-1.52308e-29 2.51052e-15 0)
(1.51588e-29 2.46645e-14 0)
(0 3.93334e-14 0)
(0 3.40679e-14 0)
(0 3.38289e-14 0)
(-1.48778e-29 3.11246e-14 0)
(0 4.97928e-14 0)
(-2.9471e-29 4.71691e-14 0)
(-2.93363e-29 9.42108e-15 0)
(-2.91918e-29 -9.25747e-15 0)
(0 1.59711e-14 0)
(0 3.87208e-14 0)
(0 3.61248e-14 0)
(-2.8649e-29 1.57565e-14 0)
(0 -4.43715e-15 0)
(2.83851e-29 -1.6194e-17 0)
(2.82498e-29 2.82796e-14 0)
(0 4.54863e-14 0)
(0 3.43614e-14 0)
(0 2.34396e-14 0)
(0 2.31897e-14 0)
(-2.7602e-29 2.51324e-14 0)
(0 2.28185e-14 0)
(0 1.23989e-14 0)
(2.7212e-29 1.21949e-14 0)
(0 2.02545e-14 0)
(2.69549e-29 3.20364e-14 0)
(0 2.59577e-14 0)
(0 5.9121e-15 0)
(2.65829e-29 2.73075e-14 0)
(0 3.88291e-14 0)
(0 2.50268e-14 0)
(0 1.90715e-14 0)
(0 2.26813e-14 0)
(0 2.99902e-14 0)
(0 2.4212e-14 0)
(0 2.02624e-14 0)
(0 2.92433e-14 0)
(0 2.90281e-14 0)
(0 3.41292e-14 0)
(-2.52415e-29 4.10157e-14 0)
(-5.02362e-29 1.77676e-14 0)
(0 6.97022e-15 0)
(0 2.77731e-14 0)
(0 3.27753e-14 0)
(-2.46519e-29 1.88389e-14 0)
(0 1.18602e-14 0)
(0 1.17753e-14 0)
(0 2.16209e-14 0)
(0 3.14157e-14 0)
(0 2.13479e-14 0)
(0 2.10993e-14 0)
(0 2.2595e-14 0)
(-2.37476e-29 8.02719e-15 0)
(-2.3631e-29 -1.26246e-14 0)
(4.70456e-29 -9.49392e-15 0)
(2.34156e-29 1.71028e-14 0)
(-4.66045e-29 1.17124e-16 0)
(6.9591e-29 7.52057e-15 0)
(-4.61715e-29 2.44039e-14 0)
(0 9.03515e-15 0)
(0 7.49568e-15 0)
(0 1.3148e-17 0)
(0 -4.4049e-15 0)
(0 5.78648e-15 0)
(0 1.44763e-14 0)
(0 5.76161e-15 0)
(0 9.26756e-19 0)
(4.42743e-29 1.40508e-14 0)
(0 1.823e-14 0)
(0 1.38531e-14 0)
(-4.36471e-29 1.92676e-14 0)
(0 1.639e-14 0)
(-2.16154e-29 -2.64004e-15 0)
(0 -9.43553e-15 0)
(0 1.06072e-14 0)
(0 1.71817e-14 0)
(0 1.3097e-14 0)
(0 1.68709e-14 0)
(-4.20279e-29 1.93302e-14 0)
(-4.18453e-29 1.53451e-14 0)
(0 7.62571e-15 0)
(0 8.7715e-15 0)
(-2.06258e-29 7.50957e-15 0)
(0 1.23175e-15 0)
(4.08685e-29 2.19921e-14 0)
(0 2.80277e-14 0)
(0 5.91008e-17 0)
(4.0302e-29 -5.8699e-17 0)
(0 1.42388e-14 0)
(0 1.64649e-14 0)
(0 2.5649e-14 0)
(-1.97734e-29 1.16627e-14 0)
(0 -9.18378e-15 0)
(0 -3.63612e-17 0)
(0 1.12856e-14 0)
(-3.88097e-29 1.12108e-14 0)
(0 6.6741e-15 0)
(0 1.75718e-14 0)
(0 8.83141e-15 0)
(0 -1.51601e-14 0)
(-3.7912e-29 -1.50527e-14 0)
(0 -6.42047e-15 0)
(0 -6.31447e-15 0)
(0 -8.4022e-15 0)
(0 -2.08748e-15 0)
(0 -1.02631e-14 0)
(0 -1.63698e-14 0)
(3.66844e-29 1.00427e-14 0)
(-7.3021e-29 1.01447e-14 0)
(0 -2.0353e-15 0)
(-7.23354e-29 -1.93418e-15 0)
(-3.59987e-29 -7.85472e-15 0)
(-7.16625e-29 -1.93644e-14 0)
(0 -2.50859e-14 0)
(0 -1.1476e-14 0)
(0 -1.13446e-14 0)
(0 -5.67207e-15 0)
(0 3.72232e-15 0)
(0 -5.49428e-15 0)
(0 -1.0989e-14 0)
(0 -1.8364e-15 0)
(0 -5.35212e-15 0)
(0 -1.42506e-14 0)
(0 -1.82084e-15 0)
(-6.7725e-29 1.78844e-15 0)
(-3.37143e-29 -1.21159e-14 0)
(0 -1.03426e-14 0)
(0 -1.51361e-17 0)
(0 5.05567e-15 0)
(0 3.07621e-17 0)
(0 -3.32937e-15 0)
(0 6.09552e-15 0)
(-3.26152e-29 6.09552e-15 0)
)
;

boundaryField
{
    INLET
    {
        type            cyclic;
    }
    OUTLET
    {
        type            cyclic;
    }
    CENTER
    {
        type            symmetryPlane;
    }
    WALL
    {
        type            extrapolatedCalculated;
        value           uniform (1.95262e-30 5.73329e-11 0);
    }
    frontAndBackPlanes
    {
        type            empty;
    }
}


// ************************************************************************* //
