/*--------------------------------*- C++ -*----------------------------------*\
| =========                 |                                                 |
| \\      /  F ield         | OpenFOAM: The Open Source CFD Toolbox           |
|  \\    /   O peration     | Version:  v1806                                 |
|   \\  /    A nd           | Web:      www.OpenFOAM.com                      |
|    \\/     M anipulation  |                                                 |
\*---------------------------------------------------------------------------*/
FoamFile
{
    version     2.0;
    format      ascii;
    class       volTensorField;
    location    "10000";
    object      grad(U);
}
// * * * * * * * * * * * * * * * * * * * * * * * * * * * * * * * * * * * * * //

dimensions      [0 0 -1 0 0 0 0];


internalField   nonuniform List<tensor> 
1025
(
(2.68366e-19 0 0 11.93 -8.9234e-12 0 0 0 0)
(0 0 0 11.926 -3.10921e-12 0 0 0 0)
(0 9.67174e-31 0 11.9223 4.48732e-13 0 0 0 0)
(-6.35071e-18 9.62657e-31 0 11.9193 3.51004e-13 0 0 0 0)
(0 0 0 11.9167 5.96482e-14 0 0 0 0)
(0 0 0 11.9147 -2.03617e-14 0 0 0 0)
(-8.34903e-18 9.49175e-31 0 11.9132 -6.72567e-15 0 0 0 0)
(4.15502e-18 0 0 11.9122 3.72952e-15 0 0 0 0)
(8.27098e-18 0 0 11.9117 4.1801e-15 0 0 0 0)
(0 0 0 11.9117 2.41616e-15 0 0 0 0)
(0 0 0 11.9123 1.2295e-15 0 0 0 0)
(0 0 0 11.9133 6.05177e-16 0 0 0 0)
(0 0 0 11.9148 3.28648e-16 0 0 0 0)
(-8.07912e-18 9.1849e-31 0 11.9169 1.75745e-16 0 0 0 0)
(-8.04122e-18 9.14181e-31 0 11.9194 8.37139e-17 0 0 0 0)
(0 0 0 11.9224 4.49618e-17 0 0 0 0)
(-1.59322e-17 0 0 11.926 4.26814e-17 0 0 0 0)
(0 0 0 11.93 1.83908e-17 0 0 0 0)
(0 0 0 11.9344 2.73002e-17 0 0 0 0)
(-1.57091e-17 8.92957e-31 0 11.9394 1.63462e-17 0 0 0 0)
(0 0 0 11.9449 9.21495e-18 0 0 0 0)
(0 0 0 11.9508 1.10143e-17 0 0 0 0)
(0 0 0 11.9572 -5.22096e-18 0 0 0 0)
(0 0 0 11.9641 -7.18486e-18 0 0 0 0)
(1.53444e-17 -1.74446e-30 0 11.9714 6.67167e-18 0 0 0 0)
(0 0 0 11.9792 -4.7256e-17 0 0 0 0)
(0 0 0 11.9875 3.87768e-17 0 0 0 0)
(0 0 0 11.9962 7.15027e-18 0 0 0 0)
(0 0 0 12.0054 -2.85323e-17 0 0 0 0)
(0 0 0 12.0151 1.17469e-16 0 0 0 0)
(0 0 0 12.0252 -1.03409e-16 0 0 0 0)
(0 0 0 12.0357 1.29815e-17 0 0 0 0)
(0 8.40014e-31 0 12.0467 1.52229e-16 0 0 0 0)
(0 0 0 12.0582 -1.8463e-17 0 0 0 0)
(0 0 0 12.0701 -1.49891e-17 0 0 0 0)
(0 0 0 12.0824 -6.66354e-17 0 0 0 0)
(0 0 0 12.0952 7.76851e-18 0 0 0 0)
(0 0 0 12.1084 1.28754e-16 0 0 0 0)
(-2.8734e-17 8.1667e-31 0 12.1221 -2.06184e-17 0 0 0 0)
(-5.72072e-17 0 0 12.1361 -3.77758e-17 0 0 0 0)
(0 0 0 12.1506 7.74896e-17 0 0 0 0)
(0 0 0 12.1656 4.62343e-17 0 0 0 0)
(0 0 0 12.1809 1.81571e-18 0 0 0 0)
(2.80698e-17 0 0 12.1967 -5.21354e-17 0 0 0 0)
(-2.79394e-17 7.94085e-31 0 12.2129 7.15595e-17 0 0 0 0)
(0 0 0 12.2295 6.70305e-17 0 0 0 0)
(-5.53529e-17 7.86613e-31 0 12.2465 -9.21155e-17 0 0 0 0)
(0 0 0 12.2639 1.48176e-18 0 0 0 0)
(0 0 0 12.2818 6.59629e-17 0 0 0 0)
(0 0 0 12.3 2.92562e-17 0 0 0 0)
(0 0 0 12.3186 -1.15485e-16 0 0 0 0)
(5.40751e-17 0 0 12.3377 1.70217e-17 0 0 0 0)
(0 0 0 12.3571 -1.52161e-17 0 0 0 0)
(-5.35717e-17 7.613e-31 0 12.3769 -8.01388e-17 0 0 0 0)
(0 0 0 12.3972 1.50641e-16 0 0 0 0)
(0 0 0 12.4178 1.18467e-17 0 0 0 0)
(0 0 0 12.4388 -8.86387e-17 0 0 0 0)
(0 0 0 12.4601 3.90099e-17 0 0 0 0)
(0 0 0 12.4819 9.69245e-17 0 0 0 0)
(-5.20751e-17 7.40032e-31 0 12.504 3.9811e-17 0 0 0 0)
(0 7.36554e-31 0 12.5265 2.90802e-17 0 0 0 0)
(0 0 0 12.5494 5.4539e-18 0 0 0 0)
(0 7.29696e-31 0 12.5727 -4.3061e-17 0 0 0 0)
(0 0 0 12.5963 3.66281e-17 0 0 0 0)
(0 7.22825e-31 0 12.6203 -6.22166e-19 0 0 0 0)
(0 0 0 12.6446 -2.96095e-17 0 0 0 0)
(0 0 0 12.6693 -6.14376e-17 0 0 0 0)
(0 0 0 12.6944 3.45822e-17 0 0 0 0)
(-4.99147e-17 7.09331e-31 0 12.7198 5.14461e-17 0 0 0 0)
(-4.96898e-17 7.06135e-31 0 12.7455 7.61133e-17 0 0 0 0)
(-9.8897e-17 7.02705e-31 0 12.7716 6.79284e-17 0 0 0 0)
(0 0 0 12.798 -7.0016e-18 0 0 0 0)
(0 0 0 12.8248 1.164e-16 0 0 0 0)
(0 -6.92868e-31 0 12.8519 -1.53932e-16 0 0 0 0)
(0 6.89819e-31 0 12.8793 1.05791e-17 0 0 0 0)
(0 6.8642e-31 0 12.9071 1.25244e-16 0 0 0 0)
(0 0 0 12.9352 4.54308e-17 0 0 0 0)
(0 0 0 12.9636 -6.46862e-19 0 0 0 0)
(0 0 0 12.9923 -1.72938e-17 0 0 0 0)
(0 0 0 13.0213 -3.83959e-17 0 0 0 0)
(0 0 0 13.0506 5.78137e-17 0 0 0 0)
(-9.39144e-17 6.67302e-31 0 13.0803 3.86206e-17 0 0 0 0)
(0 0 0 13.1102 -1.38213e-17 0 0 0 0)
(0 0 0 13.1405 6.83433e-17 0 0 0 0)
(0 0 0 13.171 -5.48271e-17 0 0 0 0)
(0 0 0 13.2018 1.79586e-17 0 0 0 0)
(0 0 0 13.2329 -2.96741e-17 0 0 0 0)
(0 0 0 13.2643 3.01009e-17 0 0 0 0)
(0 0 0 13.296 2.29512e-17 0 0 0 0)
(0 0 0 13.3279 -7.67638e-17 0 0 0 0)
(0 0 0 13.3601 9.35875e-18 0 0 0 0)
(0 0 0 13.3925 7.20532e-17 0 0 0 0)
(0 0 0 13.4252 1.20312e-17 0 0 0 0)
(0 0 0 13.4581 -3.45927e-17 0 0 0 0)
(0 0 0 13.4913 8.12954e-17 0 0 0 0)
(0 6.24847e-31 0 13.5248 2.22812e-17 0 0 0 0)
(0 0 0 13.5584 -3.30614e-17 0 0 0 0)
(0 0 0 13.5923 8.1833e-17 0 0 0 0)
(0 0 0 13.6264 -1.14006e-17 0 0 0 0)
(-8.63192e-17 0 0 13.6607 -2.63092e-17 0 0 0 0)
(0 0 0 13.6952 -6.56366e-18 0 0 0 0)
(0 0 0 13.7299 3.85888e-17 0 0 0 0)
(0 0 0 13.7647 -4.91403e-17 0 0 0 0)
(0 0 0 13.7998 4.66921e-17 0 0 0 0)
(0 0 0 13.835 5.11737e-17 0 0 0 0)
(-1.67849e-16 0 0 13.8704 -9.53897e-17 0 0 0 0)
(-1.67054e-16 5.93497e-31 0 13.906 8.7395e-17 0 0 0 0)
(0 -5.90608e-31 0 13.9416 -5.86718e-18 0 0 0 0)
(0 5.87931e-31 0 13.9774 -8.28403e-17 0 0 0 0)
(0 0 0 14.0134 1.11615e-16 0 0 0 0)
(-1.63925e-16 0 0 14.0494 5.21301e-17 0 0 0 0)
(0 0 0 14.0856 5.1286e-17 0 0 0 0)
(0 5.7693e-31 0 14.1218 1.69389e-17 0 0 0 0)
(0 0 0 14.1581 -1.47594e-16 0 0 0 0)
(0 0 0 14.1945 -1.09139e-16 0 0 0 0)
(0 0 0 14.2309 -1.04238e-16 0 0 0 0)
(0 0 0 14.2673 -9.82434e-17 0 0 0 0)
(0 0 0 14.3038 4.33201e-18 0 0 0 0)
(0 5.60928e-31 0 14.3402 7.20945e-17 0 0 0 0)
(0 5.58347e-31 0 14.3767 7.35461e-17 0 0 0 0)
(0 0 0 14.4131 4.0838e-17 0 0 0 0)
(-1.55682e-16 5.53092e-31 0 14.4494 1.92467e-17 0 0 0 0)
(0 5.50502e-31 0 14.4857 7.31568e-17 0 0 0 0)
(0 0 0 14.5219 8.57609e-17 0 0 0 0)
(0 0 0 14.5579 4.61753e-17 0 0 0 0)
(-1.52784e-16 0 0 14.5938 -9.52755e-18 0 0 0 0)
(-1.52081e-16 5.40302e-31 0 14.6296 4.11327e-17 0 0 0 0)
(-1.51364e-16 0 0 14.6651 1.08948e-16 0 0 0 0)
(0 -5.35152e-31 0 14.7004 -2.73023e-17 0 0 0 0)
(0 0 0 14.7355 -5.07211e-17 0 0 0 0)
(0 0 0 14.7703 8.474e-17 0 0 0 0)
(0 0 0 14.8048 8.19564e-17 0 0 0 0)
(0 0 0 14.8389 3.30806e-17 0 0 0 0)
(0 5.22805e-31 0 14.8726 4.94125e-17 0 0 0 0)
(0 0 0 14.906 4.93292e-17 0 0 0 0)
(0 5.1791e-31 0 14.9388 -2.11593e-17 0 0 0 0)
(0 0 0 14.9712 3.79589e-17 0 0 0 0)
(-1.44407e-16 0 0 15.003 4.20746e-17 0 0 0 0)
(0 0 0 15.0342 -4.32662e-18 0 0 0 0)
(1.43061e-16 -5.08253e-31 0 15.0648 -6.17949e-17 0 0 0 0)
(0 0 0 15.0947 -4.54367e-17 0 0 0 0)
(0 0 0 15.1238 -2.62316e-17 0 0 0 0)
(0 -5.01143e-31 0 15.1521 -8.54424e-17 0 0 0 0)
(-1.40405e-16 4.98817e-31 0 15.1796 3.71484e-17 0 0 0 0)
(-1.39738e-16 4.96447e-31 0 15.2062 6.60733e-17 0 0 0 0)
(0 0 0 15.2318 2.9714e-17 0 0 0 0)
(-1.3844e-16 0 0 15.2563 1.56839e-17 0 0 0 0)
(-1.37792e-16 0 0 15.2797 3.2982e-17 0 0 0 0)
(0 0 0 15.3019 2.34524e-17 0 0 0 0)
(0 4.8499e-31 0 15.3229 3.55906e-17 0 0 0 0)
(0 0 0 15.3425 8.28344e-17 0 0 0 0)
(0 0 0 15.3607 2.41664e-17 0 0 0 0)
(-1.34586e-16 0 0 15.3774 5.28109e-18 0 0 0 0)
(0 0 0 15.3925 8.19318e-18 0 0 0 0)
(0 0 0 15.4059 -1.74915e-18 0 0 0 0)
(0 0 0 15.4175 1.78151e-17 0 0 0 0)
(0 0 0 15.4273 -4.93642e-17 0 0 0 0)
(0 0 0 15.4352 -5.9086e-17 0 0 0 0)
(2.61688e-16 -9.29704e-31 0 15.441 -6.10296e-17 0 0 0 0)
(-2.60497e-16 0 0 15.4447 -4.74951e-17 0 0 0 0)
(0 0 0 15.4462 6.96123e-17 0 0 0 0)
(0 -9.16676e-31 0 15.4453 1.29258e-17 0 0 0 0)
(0 0 0 15.442 -9.13908e-17 0 0 0 0)
(0 0 0 15.4362 -3.64636e-17 0 0 0 0)
(0 0 0 15.4278 7.60681e-18 0 0 0 0)
(0 0 0 15.4167 -3.74733e-17 0 0 0 0)
(-2.52063e-16 0 0 15.4029 3.74773e-17 0 0 0 0)
(0 0 0 15.3861 1.42679e-16 0 0 0 0)
(0 0 0 15.3664 -2.62043e-17 0 0 0 0)
(0 0 0 15.3437 1.7898e-16 0 0 0 0)
(0 0 0 15.318 7.71351e-16 0 0 0 0)
(0 0 0 15.2889 6.92984e-17 0 0 0 0)
(0 0 0 15.2567 -2.83526e-16 0 0 0 0)
(-2.43961e-16 8.66724e-31 0 15.2212 2.30656e-16 0 0 0 0)
(-2.42842e-16 0 0 15.1825 6.38658e-16 0 0 0 0)
(0 8.57829e-31 0 15.1403 1.35257e-16 0 0 0 0)
(-2.40634e-16 0 0 15.0948 -6.06847e-17 0 0 0 0)
(2.39275e-16 -8.50075e-31 0 15.0459 1.67142e-16 0 0 0 0)
(-2.38198e-16 0 0 14.9936 -2.22158e-16 0 0 0 0)
(2.37131e-16 0 0 14.9378 -7.06591e-17 0 0 0 0)
(-2.36074e-16 0 0 14.8787 -1.62349e-16 0 0 0 0)
(2.35026e-16 -8.34979e-31 0 14.8162 1.33226e-16 0 0 0 0)
(0 0 0 14.7504 1.50266e-16 0 0 0 0)
(-2.32701e-16 8.26721e-31 0 14.6812 -3.04459e-16 0 0 0 0)
(0 -8.23103e-31 0 14.6087 -7.21116e-18 0 0 0 0)
(0 0 0 14.533 2.91503e-17 0 0 0 0)
(0 0 0 14.4541 -1.87903e-16 0 0 0 0)
(-2.28434e-16 0 0 14.3722 -1.29251e-16 0 0 0 0)
(0 0 0 14.2873 1.56647e-16 0 0 0 0)
(0 0 0 14.1996 4.45621e-16 0 0 0 0)
(0 0 0 14.1088 -2.36293e-16 0 0 0 0)
(0 0 0 14.0154 2.82858e-16 0 0 0 0)
(0 0 0 13.9194 2.23103e-16 0 0 0 0)
(-4.44403e-16 7.89419e-31 0 13.8208 9.08124e-17 0 0 0 0)
(-2.20812e-16 0 0 13.7199 1.69298e-17 0 0 0 0)
(0 0 0 13.6166 -1.21329e-16 0 0 0 0)
(0 0 0 13.5111 -2.04619e-16 0 0 0 0)
(0 0 0 13.4036 -1.47793e-16 0 0 0 0)
(0 0 0 13.2941 2.96157e-16 0 0 0 0)
(0 0 0 13.1827 -4.5011e-16 0 0 0 0)
(0 0 0 13.0698 -1.36907e-16 0 0 0 0)
(0 0 0 12.9552 1.1511e-16 0 0 0 0)
(-4.25645e-16 7.56097e-31 0 12.8391 8.85087e-17 0 0 0 0)
(0 0 0 12.7216 -7.7806e-17 0 0 0 0)
(0 0 0 12.6029 2.54585e-18 0 0 0 0)
(0 0 0 12.4831 2.37305e-16 0 0 0 0)
(0 0 0 12.3622 -1.7594e-16 0 0 0 0)
(2.08014e-16 -7.39014e-31 0 12.2405 1.03258e-16 0 0 0 0)
(0 0 0 12.1179 1.80127e-17 0 0 0 0)
(0 0 0 11.9947 -3.41896e-16 0 0 0 0)
(0 0 0 11.8708 4.76854e-17 0 0 0 0)
(0 7.24775e-31 0 11.7465 -2.0154e-16 0 0 0 0)
(4.06446e-16 -7.21993e-31 0 11.6219 1.27142e-16 0 0 0 0)
(0 0 0 11.497 4.95632e-16 0 0 0 0)
(4.022e-16 0 0 11.3717 -1.03965e-16 0 0 0 0)
(0 0 0 11.2465 -2.34409e-16 0 0 0 0)
(0 0 0 11.1213 3.1211e-16 0 0 0 0)
(0 0 0 10.9961 -1.3531e-17 0 0 0 0)
(0 0 0 10.8711 -8.53699e-17 0 0 0 0)
(0 0 0 10.7463 2.49377e-16 0 0 0 0)
(0 0 0 10.6218 -2.5868e-16 0 0 0 0)
(-3.8962e-16 6.92103e-31 0 10.4978 9.56234e-17 0 0 0 0)
(0 6.88304e-31 0 10.3742 4.2681e-16 0 0 0 0)
(0 0 0 10.2512 -3.34992e-17 0 0 0 0)
(0 0 0 10.1288 4.0931e-17 0 0 0 0)
(0 -6.78374e-31 0 10.007 -2.54681e-16 0 0 0 0)
(0 0 0 9.88598 -1.96973e-16 0 0 0 0)
(0 -6.72311e-31 0 9.76582 2.03116e-16 0 0 0 0)
(-3.76794e-16 6.69321e-31 0 9.6465 2.69017e-16 0 0 0 0)
(0 0 0 9.52806 -2.12441e-17 0 0 0 0)
(0 0 0 9.41065 -1.60907e-16 0 0 0 0)
(0 0 0 9.29433 2.67665e-16 0 0 0 0)
(0 0 0 9.17898 8.84807e-17 0 0 0 0)
(0 0 0 9.06475 1.86929e-17 0 0 0 0)
(-3.66364e-16 0 0 8.95176 2.73366e-16 0 0 0 0)
(-7.29572e-16 6.4799e-31 0 8.84005 5.40489e-16 0 0 0 0)
(0 0 0 8.72959 4.56153e-16 0 0 0 0)
(0 0 0 8.62034 7.63613e-18 0 0 0 0)
(0 0 0 8.51242 -1.27343e-17 0 0 0 0)
(0 6.35402e-31 0 8.40587 3.8e-17 0 0 0 0)
(0 0 0 8.30072 1.87051e-16 0 0 0 0)
(0 0 0 8.197 1.29718e-16 0 0 0 0)
(0 0 0 8.09474 1.70124e-16 0 0 0 0)
(0 0 0 7.99389 -1.80795e-16 0 0 0 0)
(3.49725e-16 -1.24247e-30 0 7.89456 -1.97377e-16 0 0 0 0)
(0 0 0 7.79676 9.34091e-17 0 0 0 0)
(0 0 0 7.70044 -1.74683e-16 0 0 0 0)
(0 0 0 7.60568 2.61898e-18 0 0 0 0)
(0 0 0 7.51245 -2.16159e-16 0 0 0 0)
(3.41546e-16 0 0 7.4208 1.40939e-16 0 0 0 0)
(-3.39628e-16 0 0 7.33069 2.64893e-16 0 0 0 0)
(0 0 0 7.24213 -8.62652e-17 0 0 0 0)
(0 0 0 7.15518 -3.82228e-17 0 0 0 0)
(0 0 0 7.06978 1.41389e-16 0 0 0 0)
(0 0 0 6.98588 -1.61153e-17 0 0 0 0)
(0 0 0 6.90355 -1.50717e-16 0 0 0 0)
(0 5.8683e-31 0 6.82282 1.14533e-16 0 0 0 0)
(-3.28817e-16 0 0 6.74365 9.43097e-17 0 0 0 0)
(-3.27292e-16 0 0 6.66603 1.29318e-17 0 0 0 0)
(-6.51564e-16 5.78705e-31 0 6.58995 7.85871e-18 0 0 0 0)
(-3.24285e-16 5.76046e-31 0 6.5154 2.63517e-16 0 0 0 0)
(-3.22556e-16 5.72975e-31 0 6.44231 2.62872e-16 0 0 0 0)
(-3.21089e-16 5.70369e-31 0 6.37069 1.21164e-16 0 0 0 0)
(-3.19635e-16 0 0 6.30056 1.30423e-16 0 0 0 0)
(-3.18194e-16 5.65226e-31 0 6.23192 -5.92738e-17 0 0 0 0)
(0 0 0 6.16475 -2.78231e-18 0 0 0 0)
(0 0 0 6.09898 -2.21818e-17 0 0 0 0)
(0 0 0 6.03461 -2.07649e-16 0 0 0 0)
(0 0 0 5.97165 1.62522e-17 0 0 0 0)
(0 5.51956e-31 0 5.91005 4.08492e-17 0 0 0 0)
(0 0 0 5.84978 3.17005e-17 0 0 0 0)
(0 0 0 5.79083 6.80064e-17 0 0 0 0)
(0 0 0 5.73319 9.95678e-17 0 0 0 0)
(0 0 0 5.67686 3.68442e-16 0 0 0 0)
(-3.03596e-16 0 0 5.62179 2.94289e-16 0 0 0 0)
(0 0 0 5.56793 -7.94479e-18 0 0 0 0)
(0 0 0 5.51528 -9.81876e-17 0 0 0 0)
(-5.9861e-16 5.31672e-31 0 5.46382 -5.22899e-17 0 0 0 0)
(0 0 0 5.41351 6.47215e-17 0 0 0 0)
(-5.9316e-16 5.26832e-31 0 5.36435 4.59675e-16 0 0 0 0)
(-8.854e-16 1.04852e-30 0 5.31633 6.6396e-16 0 0 0 0)
(-5.87401e-16 5.21717e-31 0 5.26938 4.87862e-16 0 0 0 0)
(0 0 0 5.22349 7.32565e-17 0 0 0 0)
(-5.82153e-16 0 0 5.17867 -1.13612e-16 0 0 0 0)
(0 0 0 5.13489 1.59647e-16 0 0 0 0)
(-5.76605e-16 0 0 5.09212 4.58523e-16 0 0 0 0)
(-1.14774e-15 5.09699e-31 0 5.05031 3.38202e-16 0 0 0 0)
(0 -5.07294e-31 0 5.00946 -1.43314e-16 0 0 0 0)
(0 0 0 4.96955 -1.82223e-16 0 0 0 0)
(0 5.02549e-31 0 4.93055 7.48797e-17 0 0 0 0)
(0 5.0021e-31 0 4.89244 1.99068e-16 0 0 0 0)
(0 0 0 4.85521 6.12958e-17 0 0 0 0)
(5.57993e-16 -4.95597e-31 0 4.81883 3.67682e-17 0 0 0 0)
(0 -4.92999e-31 0 4.78327 -3.59453e-17 0 0 0 0)
(0 0 0 4.74853 1.90908e-17 0 0 0 0)
(0 0 0 4.71458 1.79516e-16 0 0 0 0)
(0 0 0 4.6814 2.75605e-17 0 0 0 0)
(0 4.84116e-31 0 4.64898 1.02783e-16 0 0 0 0)
(0 0 0 4.61728 8.03128e-17 0 0 0 0)
(0 0 0 4.5863 -1.14418e-16 0 0 0 0)
(-5.37457e-16 0 0 4.55602 -5.97471e-17 0 0 0 0)
(0 0 0 4.52643 -7.40269e-17 0 0 0 0)
(0 0 0 4.49749 -7.52704e-17 0 0 0 0)
(0 0 0 4.46919 -4.74949e-17 0 0 0 0)
(0 0 0 4.44153 -2.83054e-17 0 0 0 0)
(0 0 0 4.41448 -1.06444e-18 0 0 0 0)
(5.22537e-16 0 0 4.38804 2.53559e-16 0 0 0 0)
(-5.19971e-16 0 0 4.36218 4.58416e-16 0 0 0 0)
(0 9.1914e-31 0 4.33687 5.19394e-17 0 0 0 0)
(0 0 0 4.31212 4.00367e-17 0 0 0 0)
(0 0 0 4.28793 3.49061e-16 0 0 0 0)
(-1.02052e-15 0 0 4.26424 4.0856e-16 0 0 0 0)
(0 0 0 4.24106 2.04555e-16 0 0 0 0)
(0 0 0 4.21839 2.04383e-16 0 0 0 0)
(0 0 0 4.1962 1.54201e-16 0 0 0 0)
(0 0 0 4.17448 -1.30907e-17 0 0 0 0)
(0 0 0 4.15323 1.79705e-16 0 0 0 0)
(0 0 0 4.13242 7.58987e-17 0 0 0 0)
(0 0 0 4.11204 -1.26221e-17 0 0 0 0)
(4.91318e-16 -8.72757e-31 0 4.09209 -1.04787e-16 0 0 0 0)
(0 0 0 4.07255 -1.47726e-16 0 0 0 0)
(-4.86801e-16 0 0 4.05342 -1.44717e-16 0 0 0 0)
(0 0 0 4.03468 -1.67489e-16 0 0 0 0)
(0 0 0 4.01632 -6.94904e-17 0 0 0 0)
(0 0 0 3.99835 -1.72006e-16 0 0 0 0)
(0 0 0 3.98073 -1.49995e-16 0 0 0 0)
(0 0 0 3.96346 1.32959e-16 0 0 0 0)
(0 0 0 3.94654 3.04242e-16 0 0 0 0)
(0 0 0 3.92996 3.25811e-16 0 0 0 0)
(-4.68751e-16 0 0 3.91369 1.34159e-16 0 0 0 0)
(0 0 0 3.89774 9.94634e-17 0 0 0 0)
(0 0 0 3.88211 1.25995e-16 0 0 0 0)
(0 8.21306e-31 0 3.86677 -6.01654e-17 0 0 0 0)
(0 0 0 3.85174 -2.20074e-17 0 0 0 0)
(0 0 0 3.837 8.62228e-17 0 0 0 0)
(-9.11769e-16 8.09813e-31 0 3.82253 9.55671e-18 0 0 0 0)
(4.53687e-16 0 0 3.80833 -3.09045e-16 0 0 0 0)
(0 0 0 3.79439 -1.26065e-16 0 0 0 0)
(0 0 0 3.78071 9.62879e-17 0 0 0 0)
(-4.47455e-16 7.9484e-31 0 3.76728 6.58174e-17 0 0 0 0)
(0 0 0 3.7541 1.32594e-16 0 0 0 0)
(0 0 0 3.74115 9.38329e-17 0 0 0 0)
(0 0 0 3.72844 9.54519e-17 0 0 0 0)
(0 0 0 3.71596 1.79862e-16 0 0 0 0)
(0 0 0 3.7037 2.17908e-16 0 0 0 0)
(0 0 0 3.69165 1.56209e-16 0 0 0 0)
(0 0 0 3.67981 1.02533e-16 0 0 0 0)
(0 0 0 3.66817 2.07905e-16 0 0 0 0)
(-4.28877e-16 7.61839e-31 0 3.65673 2.24041e-16 0 0 0 0)
(0 0 0 3.64549 1.43685e-16 0 0 0 0)
(0 0 0 3.63443 -1.13389e-16 0 0 0 0)
(8.45764e-16 -7.5119e-31 0 3.62355 -4.43172e-16 0 0 0 0)
(4.20991e-16 -7.47829e-31 0 3.61285 -2.81746e-16 0 0 0 0)
(0 0 0 3.60233 -1.89095e-17 0 0 0 0)
(-8.34104e-16 0 0 3.59198 2.10828e-16 0 0 0 0)
(0 0 0 3.58179 2.93823e-16 0 0 0 0)
(0 0 0 3.57176 1.99058e-16 0 0 0 0)
(0 7.30404e-31 0 3.56189 2.76981e-16 0 0 0 0)
(0 0 0 3.55217 1.32514e-16 0 0 0 0)
(0 0 0 3.54261 -6.15433e-17 0 0 0 0)
(0 0 0 3.53319 -9.29755e-17 0 0 0 0)
(8.07082e-16 -7.16833e-31 0 3.5239 -8.55005e-17 0 0 0 0)
(0 0 0 3.51476 -2.0268e-17 0 0 0 0)
(0 0 0 3.50575 -5.21401e-17 0 0 0 0)
(0 0 0 3.49687 -9.63374e-17 0 0 0 0)
(0 0 0 3.48812 -1.40517e-16 0 0 0 0)
(0 0 0 3.4795 -5.76545e-18 0 0 0 0)
(-7.84653e-16 6.96912e-31 0 3.47099 2.61868e-16 0 0 0 0)
(-7.80676e-16 1.38676e-30 0 3.4626 1.90319e-16 0 0 0 0)
(0 0 0 3.45432 6.94093e-17 0 0 0 0)
(0 0 0 3.44616 2.73229e-17 0 0 0 0)
(0 0 0 3.43811 2.81894e-16 0 0 0 0)
(-1.1493e-15 1.36104e-30 0 3.43016 5.55256e-16 0 0 0 0)
(0 0 0 3.42231 1.80132e-16 0 0 0 0)
(3.79665e-16 0 0 3.41456 -9.82365e-17 0 0 0 0)
(0 0 0 3.40692 -3.42194e-16 0 0 0 0)
(3.76125e-16 -6.68132e-31 0 3.39937 -3.37687e-16 0 0 0 0)
(0 0 0 3.39192 8.51886e-17 0 0 0 0)
(0 0 0 3.38454 1.23289e-16 0 0 0 0)
(0 0 0 3.37726 8.07906e-17 0 0 0 0)
(-3.69078e-16 0 0 3.37007 1.57921e-16 0 0 0 0)
(0 0 0 3.36296 5.96714e-17 0 0 0 0)
(0 0 0 3.35593 4.00962e-17 0 0 0 0)
(0 0 0 3.34897 -1.81553e-18 0 0 0 0)
(-7.24579e-16 0 0 3.3421 7.26866e-17 0 0 0 0)
(0 0 0 3.3353 7.45784e-17 0 0 0 0)
(0 0 0 3.32857 -1.79708e-16 0 0 0 0)
(0 -6.34331e-31 0 3.32191 -4.43537e-17 0 0 0 0)
(0 0 0 3.31533 1.10691e-17 0 0 0 0)
(0 0 0 3.30881 -9.93432e-17 0 0 0 0)
(0 6.25627e-31 0 3.30236 1.12453e-16 0 0 0 0)
(0 0 0 3.29597 9.60334e-17 0 0 0 0)
(0 0 0 3.28964 -3.64425e-17 0 0 0 0)
(0 0 0 3.28337 -1.17075e-16 0 0 0 0)
(-6.91173e-16 0 0 3.27716 9.41656e-17 0 0 0 0)
(0 6.10894e-31 0 3.27101 5.18987e-16 0 0 0 0)
(0 6.08178e-31 0 3.26491 3.83923e-16 0 0 0 0)
(0 0 0 3.25887 4.33694e-18 0 0 0 0)
(0 0 0 3.25288 4.89528e-18 0 0 0 0)
(-6.74927e-16 5.99455e-31 0 3.24694 9.30832e-17 0 0 0 0)
(1.34396e-15 -5.9684e-31 0 3.24105 2.43133e-17 0 0 0 0)
(0 0 0 3.2352 -2.16233e-17 0 0 0 0)
(0 0 0 3.22941 -2.0584e-16 0 0 0 0)
(6.62521e-16 -5.88437e-31 0 3.22366 -3.37013e-16 0 0 0 0)
(0 0 0 3.21795 -1.2355e-16 0 0 0 0)
(0 0 0 3.21229 8.51001e-17 0 0 0 0)
(0 0 0 3.20667 6.03571e-17 0 0 0 0)
(0 0 0 3.20109 7.37081e-17 0 0 0 0)
(0 0 0 3.19555 3.09366e-17 0 0 0 0)
(0 0 0 3.19005 -1.44279e-17 0 0 0 0)
(0 0 0 3.18458 2.06688e-16 0 0 0 0)
(0 0 0 3.17916 3.85867e-16 0 0 0 0)
(-6.35195e-16 5.64167e-31 0 3.17376 4.62705e-16 0 0 0 0)
(0 5.6143e-31 0 3.1684 4.78013e-16 0 0 0 0)
(0 0 0 3.16307 1.83326e-16 0 0 0 0)
(0 0 0 3.15777 -3.98472e-17 0 0 0 0)
(0 0 0 3.1525 -6.39747e-17 0 0 0 0)
(0 0 0 3.14727 1.61831e-16 0 0 0 0)
(0 0 0 3.14207 2.84388e-16 0 0 0 0)
(0 0 0 3.13689 1.49212e-16 0 0 0 0)
(0 0 0 3.13174 1.86783e-16 0 0 0 0)
(0 5.40846e-31 0 3.12661 2.98613e-16 0 0 0 0)
(0 0 0 3.12151 3.41316e-16 0 0 0 0)
(0 5.35647e-31 0 3.11643 2.97275e-16 0 0 0 0)
(0 0 0 3.11139 3.38632e-16 0 0 0 0)
(-5.97343e-16 0 0 3.10636 2.13343e-16 0 0 0 0)
(0 5.28312e-31 0 3.10135 3.14342e-17 0 0 0 0)
(0 0 0 3.09637 -2.67722e-17 0 0 0 0)
(0 0 0 3.09141 1.4157e-16 0 0 0 0)
(0 5.20814e-31 0 3.08646 3.09219e-16 0 0 0 0)
(0 5.18481e-31 0 3.08154 1.27706e-16 0 0 0 0)
(0 0 0 3.07664 -3.52946e-17 0 0 0 0)
(0 0 0 3.07176 -9.45511e-17 0 0 0 0)
(0 0 0 3.06689 6.68862e-17 0 0 0 0)
(0 0 0 3.06204 2.367e-16 0 0 0 0)
(-5.70201e-16 5.0644e-31 0 3.0572 2.11602e-16 0 0 0 0)
(0 0 0 3.05238 4.8237e-17 0 0 0 0)
(-5.64877e-16 0 0 3.04758 -7.48756e-17 0 0 0 0)
(0 0 0 3.04279 -6.35649e-17 0 0 0 0)
(0 0 0 3.03801 4.15714e-17 0 0 0 0)
(0 0 0 3.03325 1.37852e-16 0 0 0 0)
(0 0 0 3.0285 -1.48595e-16 0 0 0 0)
(0 0 0 3.02376 -3.94534e-16 0 0 0 0)
(-5.48952e-16 0 0 3.01904 -2.27834e-16 0 0 0 0)
(0 0 0 3.01432 1.48803e-16 0 0 0 0)
(0 0 0 3.00962 2.44605e-16 0 0 0 0)
(5.41408e-16 -4.80867e-31 0 3.00493 -8.82337e-18 0 0 0 0)
(0 0 0 3.00025 -8.53637e-17 0 0 0 0)
(0 0 0 2.99558 7.51831e-17 0 0 0 0)
(0 0 0 2.99091 1.4469e-16 0 0 0 0)
(-5.31388e-16 0 0 2.98626 1.51986e-16 0 0 0 0)
(0 0 0 2.98161 6.79576e-17 0 0 0 0)
(0 0 0 2.97697 2.19268e-17 0 0 0 0)
(0 0 0 2.97234 1.94575e-16 0 0 0 0)
(-5.21411e-16 9.26213e-31 0 2.96772 2.10034e-16 0 0 0 0)
(0 0 0 2.9631 -1.49655e-16 0 0 0 0)
(1.03328e-15 -9.17739e-31 0 2.95849 -4.88433e-16 0 0 0 0)
(0 0 0 2.95389 -1.14486e-16 0 0 0 0)
(-5.11648e-16 0 0 2.94929 3.33633e-16 0 0 0 0)
(0 0 0 2.94469 1.47141e-16 0 0 0 0)
(0 0 0 2.9401 -1.5784e-17 0 0 0 0)
(0 0 0 2.93552 1.75279e-16 0 0 0 0)
(-5.02243e-16 1.78433e-30 0 2.93094 5.16446e-16 0 0 0 0)
(0 0 0 2.92636 5.75145e-16 0 0 0 0)
(0 0 0 2.92179 2.06215e-16 0 0 0 0)
(0 0 0 2.91722 -5.00047e-17 0 0 0 0)
(0 0 0 2.91265 -1.39975e-17 0 0 0 0)
(0 0 0 2.90809 2.22367e-16 0 0 0 0)
(-4.88203e-16 8.67223e-31 0 2.90353 3.47002e-16 0 0 0 0)
(4.85963e-16 -8.63243e-31 0 2.89898 1.70198e-16 0 0 0 0)
(-4.83742e-16 8.59299e-31 0 2.89442 9.23811e-17 0 0 0 0)
(0 0 0 2.88987 1.79286e-16 0 0 0 0)
(0 0 0 2.88531 1.61082e-16 0 0 0 0)
(0 0 0 2.88076 1.16313e-16 0 0 0 0)
(0 8.43168e-31 0 2.87621 1.81697e-16 0 0 0 0)
(4.72543e-16 0 0 2.87167 2.79128e-16 0 0 0 0)
(-9.40364e-16 0 0 2.86712 1.49635e-16 0 0 0 0)
(0 0 0 2.86257 3.98795e-17 0 0 0 0)
(0 0 0 2.85802 1.90284e-17 0 0 0 0)
(0 0 0 2.85348 -4.01383e-16 0 0 0 0)
(9.22945e-16 -8.1974e-31 0 2.84893 -7.97722e-16 0 0 0 0)
(0 0 0 2.84439 -4.36131e-16 0 0 0 0)
(0 0 0 2.83984 4.10046e-17 0 0 0 0)
(0 0 0 2.8353 9.9054e-17 0 0 0 0)
(0 0 0 2.83075 1.28618e-16 0 0 0 0)
(0 0 0 2.82619 1.54923e-16 0 0 0 0)
(0 0 0 2.82165 2.31173e-16 0 0 0 0)
(-8.93024e-16 0 0 2.8171 1.55414e-16 0 0 0 0)
(0 0 0 2.81254 -1.97442e-17 0 0 0 0)
(0 0 0 2.80799 2.70748e-17 0 0 0 0)
(0 0 0 2.80343 1.27285e-16 0 0 0 0)
(0 7.78594e-31 0 2.79888 1.17584e-16 0 0 0 0)
(-8.72331e-16 0 0 2.79432 -2.17082e-16 0 0 0 0)
(0 0 0 2.78975 -5.85352e-16 0 0 0 0)
(0 0 0 2.78519 -4.63859e-16 0 0 0 0)
(0 0 0 2.78063 -2.14808e-16 0 0 0 0)
(0 0 0 2.77606 -4.63119e-17 0 0 0 0)
(-8.52146e-16 0 0 2.77149 1.11439e-16 0 0 0 0)
(0 0 0 2.76692 9.59669e-17 0 0 0 0)
(0 0 0 2.76234 -1.51762e-17 0 0 0 0)
(8.4031e-16 -7.46346e-31 0 2.75776 5.06809e-17 0 0 0 0)
(0 0 0 2.75318 1.02718e-16 0 0 0 0)
(-8.3226e-16 0 0 2.7486 8.76445e-18 0 0 0 0)
(0 0 0 2.74401 1.47478e-16 0 0 0 0)
(0 0 0 2.73942 2.0872e-16 0 0 0 0)
(-8.20768e-16 0 0 2.73484 1.40811e-16 0 0 0 0)
(0 0 0 2.73026 1.69229e-16 0 0 0 0)
(0 0 0 2.72568 5.301e-17 0 0 0 0)
(8.09396e-16 0 0 2.72112 -5.75733e-17 0 0 0 0)
(0 0 0 2.71657 -5.5054e-17 0 0 0 0)
(0 0 0 2.71204 3.04397e-18 0 0 0 0)
(0 0 0 2.70759 8.83874e-17 0 0 0 0)
(-7.94217e-16 0 0 2.70314 1.13684e-16 0 0 0 0)
(0 7.02115e-31 0 2.69867 -4.512e-17 0 0 0 0)
(-7.8684e-16 6.98854e-31 0 2.69417 -1.5736e-16 0 0 0 0)
(-7.83021e-16 0 0 2.68957 5.65381e-17 0 0 0 0)
(0 0 0 2.68495 3.90672e-16 0 0 0 0)
(-7.75849e-16 6.89092e-31 0 2.68032 5.93542e-16 0 0 0 0)
(0 0 0 2.67568 3.87098e-16 0 0 0 0)
(0 0 0 2.67104 8.93483e-17 0 0 0 0)
(0 0 0 2.66639 1.83566e-16 0 0 0 0)
(-7.61378e-16 6.76239e-31 0 2.66173 6.26504e-16 0 0 0 0)
(-7.57632e-16 0 0 2.65707 8.7552e-16 0 0 0 0)
(0 0 0 2.6524 6.46665e-16 0 0 0 0)
(-1.5015e-15 6.66799e-31 0 2.64773 4.39169e-16 0 0 0 0)
(0 0 0 2.64306 4.72029e-16 0 0 0 0)
(-7.43664e-16 0 0 2.63838 5.72103e-16 0 0 0 0)
(-7.40252e-16 0 0 2.6337 4.47429e-16 0 0 0 0)
(0 0 0 2.62901 2.90133e-16 0 0 0 0)
(7.33203e-16 -6.51215e-31 0 2.62432 1.79789e-16 0 0 0 0)
(0 0 0 2.61963 -3.92299e-17 0 0 0 0)
(0 0 0 2.61493 -1.33266e-16 0 0 0 0)
(0 0 0 2.61023 -1.26683e-16 0 0 0 0)
(0 0 0 2.60552 -2.77804e-17 0 0 0 0)
(-7.16156e-16 0 0 2.60081 1.19731e-16 0 0 0 0)
(7.12991e-16 0 0 2.59609 4.80308e-17 0 0 0 0)
(0 0 0 2.59137 -1.47126e-16 0 0 0 0)
(0 0 0 2.58664 -1.29338e-18 0 0 0 0)
(-7.02932e-16 6.24329e-31 0 2.58192 3.49489e-16 0 0 0 0)
(-6.99594e-16 0 0 2.57718 2.04746e-16 0 0 0 0)
(0 0 0 2.57244 -2.67661e-16 0 0 0 0)
(1.38602e-15 -6.15518e-31 0 2.5677 -4.95186e-16 0 0 0 0)
(0 0 0 2.56296 -4.13243e-16 0 0 0 0)
(0 0 0 2.55821 -3.09347e-16 0 0 0 0)
(6.83367e-16 -6.06952e-31 0 2.55345 -7.94761e-17 0 0 0 0)
(-6.80211e-16 0 0 2.54869 2.71975e-16 0 0 0 0)
(0 0 0 2.54393 1.50116e-16 0 0 0 0)
(0 0 0 2.53917 -2.18355e-17 0 0 0 0)
(0 0 0 2.53439 9.16429e-17 0 0 0 0)
(0 0 0 2.52962 1.85109e-17 0 0 0 0)
(1.99302e-15 -1.1801e-30 0 2.52484 -1.57991e-16 0 0 0 0)
(0 0 0 2.52006 9.72529e-17 0 0 0 0)
(-6.5789e-16 5.84323e-31 0 2.51527 2.70659e-16 0 0 0 0)
(0 0 0 2.51048 1.59223e-16 0 0 0 0)
(0 0 0 2.50568 1.55354e-16 0 0 0 0)
(0 0 0 2.50088 1.0222e-16 0 0 0 0)
(0 0 0 2.49608 1.07359e-16 0 0 0 0)
(0 0 0 2.49128 8.68313e-17 0 0 0 0)
(-6.3927e-16 5.67786e-31 0 2.48646 -7.20248e-17 0 0 0 0)
(0 0 0 2.48164 -7.90859e-17 0 0 0 0)
(1.26896e-15 -5.63533e-31 0 2.47683 7.78773e-17 0 0 0 0)
(0 0 0 2.47201 9.50227e-17 0 0 0 0)
(0 0 0 2.46717 1.00455e-16 0 0 0 0)
(-1.25023e-15 5.55215e-31 0 2.46233 6.30326e-16 0 0 0 0)
(-1.86503e-15 5.52159e-31 0 2.45749 1.41295e-15 0 0 0 0)
(-6.19403e-16 0 0 2.45265 1.33423e-15 0 0 0 0)
(0 0 0 2.44782 5.53204e-16 0 0 0 0)
(6.12682e-16 -5.44171e-31 0 2.44298 -1.72683e-16 0 0 0 0)
(0 0 0 2.43812 -3.6275e-16 0 0 0 0)
(0 0 0 2.43327 -8.78764e-17 0 0 0 0)
(0 0 0 2.42842 1.41808e-16 0 0 0 0)
(0 0 0 2.42356 6.71275e-16 0 0 0 0)
(-1.19722e-15 1.06334e-30 0 2.41868 9.03114e-16 0 0 0 0)
(0 0 0 2.41381 2.83092e-16 0 0 0 0)
(0 0 0 2.40893 -6.60071e-17 0 0 0 0)
(0 0 0 2.40406 -2.46825e-17 0 0 0 0)
(-1.17643e-15 5.22442e-31 0 2.39919 -1.18785e-16 0 0 0 0)
(0 0 0 2.39431 4.89775e-16 0 0 0 0)
(-1.16431e-15 5.17056e-31 0 2.38942 1.08514e-15 0 0 0 0)
(0 0 0 2.38453 8.29062e-16 0 0 0 0)
(0 0 0 2.37964 3.47201e-16 0 0 0 0)
(-1.14852e-15 5.10045e-31 0 2.37475 -1.30391e-16 0 0 0 0)
(0 0 0 2.36984 -1.39896e-16 0 0 0 0)
(0 0 0 2.36494 6.35489e-16 0 0 0 0)
(0 1.00644e-30 0 2.36004 1.35049e-15 0 0 0 0)
(0 0 0 2.35514 8.41158e-16 0 0 0 0)
(0 0 0 2.35023 4.95232e-17 0 0 0 0)
(1.11635e-15 -9.91521e-31 0 2.34531 -1.69168e-16 0 0 0 0)
(0 4.93322e-31 0 2.34038 -3.26428e-16 0 0 0 0)
(0 0 0 2.33546 -2.14663e-16 0 0 0 0)
(-1.10183e-15 0 0 2.33055 1.46062e-16 0 0 0 0)
(0 0 0 2.32561 -1.87125e-16 0 0 0 0)
(1.09119e-15 -9.69168e-31 0 2.32068 -5.62932e-16 0 0 0 0)
(0 0 0 2.31575 -2.94564e-16 0 0 0 0)
(0 0 0 2.31081 2.74156e-17 0 0 0 0)
(0 -4.77661e-31 0 2.30588 2.03791e-16 0 0 0 0)
(-1.0705e-15 4.75397e-31 0 2.30094 6.84763e-16 0 0 0 0)
(-2.1309e-15 9.4631e-31 0 2.29599 1.24065e-15 0 0 0 0)
(-1.06211e-15 9.43343e-31 0 2.29105 1.70068e-15 0 0 0 0)
(0 4.68733e-31 0 2.28612 1.9393e-15 0 0 0 0)
(-1.05058e-15 4.66553e-31 0 2.28116 8.93329e-16 0 0 0 0)
(1.04572e-15 -4.64393e-31 0 2.27621 -2.74046e-16 0 0 0 0)
(1.0409e-15 0 0 2.27125 -2.9078e-16 0 0 0 0)
(0 0 0 2.2663 -3.07228e-16 0 0 0 0)
(0 -9.16063e-31 0 2.26134 -3.09808e-16 0 0 0 0)
(0 -9.10519e-31 0 2.25637 -2.92368e-17 0 0 0 0)
(0 0 0 2.2514 1.30824e-16 0 0 0 0)
(0 0 0 2.24644 1.43753e-16 0 0 0 0)
(0 0 0 2.24147 3.88431e-16 0 0 0 0)
(0 0 0 2.2365 5.6442e-16 0 0 0 0)
(0 0 0 2.23153 1.92249e-16 0 0 0 0)
(9.97977e-16 0 0 2.22655 -1.25197e-17 0 0 0 0)
(-9.93587e-16 0 0 2.22158 2.05528e-16 0 0 0 0)
(0 0 0 2.2166 3.08739e-16 0 0 0 0)
(9.84922e-16 0 0 2.21162 2.24826e-16 0 0 0 0)
(-1.95846e-15 1.73946e-30 0 2.20665 3.50631e-16 0 0 0 0)
(9.73601e-16 -8.64731e-31 0 2.20166 1.76319e-16 0 0 0 0)
(0 0 0 2.19667 9.90771e-17 0 0 0 0)
(-9.6528e-16 8.57341e-31 0 2.19168 3.80367e-16 0 0 0 0)
(-9.61172e-16 8.53692e-31 0 2.18669 3.43229e-16 0 0 0 0)
(0 0 0 2.1817 -4.96652e-17 0 0 0 0)
(0 0 0 2.17671 -3.11335e-16 0 0 0 0)
(0 0 0 2.17172 -3.31381e-16 0 0 0 0)
(0 0 0 2.16673 -1.10738e-16 0 0 0 0)
(0 0 0 2.16172 3.59049e-16 0 0 0 0)
(-1.86931e-15 8.30142e-31 0 2.15673 6.3049e-16 0 0 0 0)
(0 0 0 2.15173 7.81258e-16 0 0 0 0)
(0 0 0 2.14673 6.82218e-16 0 0 0 0)
(0 0 0 2.14173 4.57472e-16 0 0 0 0)
(0 0 0 2.13673 3.71324e-16 0 0 0 0)
(0 0 0 2.13172 -8.29322e-17 0 0 0 0)
(0 0 0 2.12672 -5.44218e-16 0 0 0 0)
(9.04708e-16 0 0 2.12171 -3.60156e-16 0 0 0 0)
(0 7.99274e-31 0 2.11671 -8.03992e-17 0 0 0 0)
(0 0 0 2.1117 -4.80548e-16 0 0 0 0)
(8.91614e-16 -7.91912e-31 0 2.10669 -9.3651e-16 0 0 0 0)
(0 0 0 2.10168 -4.33574e-16 0 0 0 0)
(0 0 0 2.09667 3.51661e-16 0 0 0 0)
(-8.78893e-16 7.80614e-31 0 2.09166 6.03126e-16 0 0 0 0)
(0 0 0 2.08664 4.32328e-16 0 0 0 0)
(0 0 0 2.08163 2.07451e-16 0 0 0 0)
(0 0 0 2.07661 9.11716e-17 0 0 0 0)
(0 0 0 2.0716 6.9177e-17 0 0 0 0)
(0 0 0 2.06659 1.07739e-16 0 0 0 0)
(0 0 0 2.06158 3.26273e-17 0 0 0 0)
(0 0 0 2.05656 -9.13078e-17 0 0 0 0)
(0 0 0 2.05154 6.14597e-17 0 0 0 0)
(-8.41772e-16 7.47644e-31 0 2.04652 1.20032e-16 0 0 0 0)
(-8.38646e-16 0 0 2.0415 8.03793e-17 0 0 0 0)
(0 0 0 2.03649 2.71712e-16 0 0 0 0)
(0 0 0 2.03147 6.32782e-16 0 0 0 0)
(-1.65477e-15 7.34863e-31 0 2.02646 6.01195e-16 0 0 0 0)
(8.22362e-16 -7.30404e-31 0 2.02144 -4.31859e-16 0 0 0 0)
(8.19379e-16 -7.27755e-31 0 2.01641 -9.39525e-16 0 0 0 0)
(0 0 0 2.0114 -3.39796e-16 0 0 0 0)
(0 0 0 2.00638 2.85392e-16 0 0 0 0)
(-8.0766e-16 7.17346e-31 0 2.00136 5.42972e-16 0 0 0 0)
(-1.60765e-15 0 0 1.99634 3.96208e-16 0 0 0 0)
(0 0 0 1.99132 1.08512e-16 0 0 0 0)
(0 0 0 1.9863 -8.40261e-17 0 0 0 0)
(-7.92545e-16 0 0 1.98129 1.978e-16 0 0 0 0)
(0 7.00644e-31 0 1.97627 7.6132e-16 0 0 0 0)
(0 0 0 1.97125 7.30876e-16 0 0 0 0)
(-1.56315e-15 0 0 1.96623 8.41937e-16 0 0 0 0)
(-1.55597e-15 6.90991e-31 0 1.96121 1.25888e-15 0 0 0 0)
(-7.7443e-16 6.87832e-31 0 1.95619 8.44113e-16 0 0 0 0)
(0 0 0 1.95118 2.43844e-16 0 0 0 0)
(0 6.80829e-31 0 1.94616 1.1796e-16 0 0 0 0)
(-7.63953e-16 6.78527e-31 0 1.94114 2.58503e-16 0 0 0 0)
(0 0 0 1.93612 1.6802e-16 0 0 0 0)
(0 0 0 1.9311 2.57382e-16 0 0 0 0)
(-1.50584e-15 6.68726e-31 0 1.92609 5.64e-16 0 0 0 0)
(0 0 0 1.92108 3.87619e-16 0 0 0 0)
(0 0 0 1.91606 3.98362e-16 0 0 0 0)
(-1.4844e-15 6.59204e-31 0 1.91104 5.02927e-16 0 0 0 0)
(0 0 0 1.90603 3.50911e-16 0 0 0 0)
(0 0 0 1.90102 -1.60209e-16 0 0 0 0)
(0 0 0 1.896 -4.91041e-16 0 0 0 0)
(0 0 0 1.89099 -1.63072e-16 0 0 0 0)
(-1.45102e-15 0 0 1.88598 4.31676e-16 0 0 0 0)
(-1.44329e-15 0 0 1.88097 8.56531e-16 0 0 0 0)
(0 0 0 1.87596 4.14643e-16 0 0 0 0)
(0 0 0 1.87095 -1.5956e-16 0 0 0 0)
(0 0 0 1.86594 -2.16367e-16 0 0 0 0)
(0 0 0 1.86094 -2.45118e-16 0 0 0 0)
(0 -6.26278e-31 0 1.85593 1.2014e-16 0 0 0 0)
(-1.40295e-15 0 0 1.85092 6.81064e-16 0 0 0 0)
(0 0 0 1.84592 9.76383e-16 0 0 0 0)
(0 6.17285e-31 0 1.84092 9.95809e-16 0 0 0 0)
(0 0 0 1.83591 4.77403e-16 0 0 0 0)
(0 6.11639e-31 0 1.83091 5.83733e-17 0 0 0 0)
(0 0 0 1.82591 -2.38299e-16 0 0 0 0)
(0 0 0 1.82091 -3.74863e-16 0 0 0 0)
(0 0 0 1.81591 -2.47245e-16 0 0 0 0)
(0 0 0 1.81092 -2.46385e-16 0 0 0 0)
(0 0 0 1.80592 -1.45472e-16 0 0 0 0)
(0 0 0 1.80092 1.19293e-16 0 0 0 0)
(-1.3326e-15 5.91793e-31 0 1.79593 3.2718e-16 0 0 0 0)