/*--------------------------------*- C++ -*----------------------------------*\
| =========                 |                                                 |
| \\      /  F ield         | OpenFOAM: The Open Source CFD Toolbox           |
|  \\    /   O peration     | Version:  v1806                                 |
|   \\  /    A nd           | Web:      www.OpenFOAM.com                      |
|    \\/     M anipulation  |                                                 |
\*---------------------------------------------------------------------------*/
FoamFile
{
    version     2.0;
    format      ascii;
    class       volScalarField;
    location    "10000";
    object      k;
}
// * * * * * * * * * * * * * * * * * * * * * * * * * * * * * * * * * * * * * //

dimensions      [0 2 -2 0 0 0 0];


internalField   nonuniform List<scalar> 
1025
(
1.04587e-08
1.2819e-07
3.78615e-07
7.6409e-07
1.28703e-06
1.9499e-06
2.75525e-06
3.70567e-06
4.80382e-06
6.05245e-06
7.45435e-06
9.01242e-06
1.07296e-05
1.26088e-05
1.46533e-05
1.68662e-05
1.92507e-05
2.18102e-05
2.45481e-05
2.74679e-05
3.05732e-05
3.38676e-05
3.73549e-05
4.1039e-05
4.49238e-05
4.90135e-05
5.33119e-05
5.78235e-05
6.25525e-05
6.75032e-05
7.26806e-05
7.80888e-05
8.37329e-05
8.96183e-05
9.57492e-05
0.000102131
0.000108768
0.000115666
0.000122832
0.00013027
0.000137986
0.000145987
0.000154277
0.000162863
0.000171752
0.000180949
0.000190463
0.000200297
0.00021046
0.00022096
0.000231803
0.000242995
0.000254546
0.000266461
0.000278749
0.000291421
0.000304481
0.000317938
0.000331801
0.00034608
0.000360783
0.000375918
0.000391496
0.000407525
0.000424016
0.000440978
0.000458422
0.000476357
0.000494795
0.000513746
0.000533222
0.000553233
0.000573789
0.000594907
0.000616594
0.000638862
0.000661728
0.000685202
0.000709297
0.000734027
0.000759403
0.000785442
0.000812157
0.000839562
0.000867673
0.000896502
0.000926068
0.000956383
0.000987467
0.00101933
0.001052
0.00108548
0.0011198
0.00115496
0.001191
0.00122793
0.00126576
0.00130451
0.00134421
0.00138488
0.00142652
0.00146917
0.00151285
0.00155758
0.00160337
0.00165025
0.00169824
0.00174737
0.00179766
0.00184912
0.00190179
0.00195569
0.00201084
0.00206727
0.00212501
0.00218408
0.0022445
0.0023063
0.00236951
0.00243416
0.00250027
0.00256788
0.00263701
0.00270768
0.00277994
0.0028538
0.00292929
0.00300645
0.00308531
0.0031659
0.00324824
0.00333236
0.00341831
0.00350611
0.00359578
0.00368736
0.00378089
0.00387638
0.00397388
0.00407342
0.00417501
0.00427869
0.00438451
0.00449247
0.00460261
0.00471496
0.00482953
0.00494638
0.00506551
0.00518695
0.00531072
0.00543685
0.00556537
0.00569628
0.0058296
0.00596535
0.00610355
0.0062442
0.00638731
0.00653291
0.00668098
0.00683155
0.0069846
0.00714011
0.00729811
0.00745857
0.00762149
0.00778685
0.00795464
0.00812477
0.00829728
0.00847226
0.00864955
0.00882901
0.00901068
0.00919463
0.00938071
0.00956886
0.00975912
0.00995134
0.0101454
0.0103414
0.0105391
0.0107387
0.0109399
0.0111427
0.011347
0.0115527
0.0117597
0.011968
0.0121776
0.0123883
0.0126
0.0128127
0.0130262
0.0132405
0.0134555
0.0136711
0.0138872
0.0141039
0.0143208
0.014538
0.0147554
0.0149731
0.0151908
0.0154084
0.015626
0.0158433
0.0160605
0.0162775
0.016494
0.0167101
0.0169256
0.0171406
0.0173552
0.017569
0.017782
0.0179944
0.0182059
0.0184166
0.0186265
0.0188354
0.0190432
0.0192502
0.0194561
0.0196609
0.0198647
0.0200672
0.0202687
0.0204691
0.0206682
0.020866
0.0210628
0.0212583
0.0214525
0.0216454
0.0218371
0.0220275
0.0222167
0.0224046
0.0225912
0.0227766
0.0229606
0.0231435
0.023325
0.0235053
0.0236843
0.0238621
0.0240387
0.024214
0.0243882
0.0245611
0.0247329
0.0249035
0.025073
0.0252414
0.0254086
0.0255747
0.0257397
0.0259037
0.0260666
0.0262285
0.0263894
0.0265494
0.0267084
0.0268663
0.0270234
0.0271797
0.027335
0.0274894
0.027643
0.0277959
0.0279479
0.0280991
0.0282495
0.0283993
0.0285483
0.0286966
0.0288443
0.0289913
0.0291377
0.0292835
0.0294287
0.0295733
0.0297173
0.0298607
0.0300037
0.0301462
0.0302882
0.0304297
0.0305707
0.0307114
0.0308516
0.0309914
0.0311308
0.0312699
0.0314086
0.0315469
0.031685
0.0318227
0.0319602
0.0320973
0.0322342
0.0323709
0.0325073
0.0326435
0.0327794
0.0329152
0.0330507
0.0331861
0.0333213
0.0334564
0.0335914
0.0337262
0.0338608
0.0339954
0.0341299
0.0342643
0.0343986
0.0345328
0.034667
0.0348011
0.0349352
0.0350692
0.0352032
0.0353372
0.0354712
0.0356052
0.0357392
0.0358733
0.0360073
0.0361414
0.0362755
0.0364096
0.0365438
0.0366781
0.0368124
0.0369468
0.0370813
0.0372159
0.0373506
0.0374853
0.0376202
0.0377551
0.0378902
0.0380254
0.0381607
0.0382962
0.0384317
0.0385675
0.0387033
0.0388394
0.0389755
0.0391118
0.0392483
0.0393849
0.0395218
0.0396588
0.0397959
0.0399333
0.0400708
0.0402085
0.0403464
0.0404845
0.0406228
0.0407613
0.0409
0.0410389
0.041178
0.0413173
0.0414569
0.0415966
0.0417366
0.0418768
0.0420172
0.0421579
0.0422987
0.0424398
0.0425812
0.0427228
0.0428645
0.0430066
0.0431489
0.0432914
0.0434342
0.0435772
0.0437205
0.043864
0.0440078
0.0441518
0.044296
0.0444405
0.0445853
0.0447303
0.0448756
0.0450212
0.045167
0.045313
0.0454593
0.0456059
0.0457527
0.0458998
0.0460471
0.0461947
0.0463426
0.0464907
0.0466391
0.0467877
0.0469366
0.0470858
0.0472352
0.0473849
0.0475348
0.047685
0.0478355
0.0479862
0.0481372
0.0482884
0.0484399
0.0485917
0.0487437
0.048896
0.0490485
0.0492013
0.0493543
0.0495076
0.0496611
0.0498149
0.049969
0.0501233
0.0502778
0.0504325
0.0505876
0.0507428
0.0508984
0.0510541
0.0512101
0.0513663
0.0515228
0.0516795
0.0518364
0.0519936
0.052151
0.0523086
0.0524665
0.0526246
0.0527829
0.0529414
0.0531001
0.0532591
0.0534183
0.0535777
0.0537373
0.0538971
0.0540571
0.0542173
0.0543777
0.0545383
0.0546991
0.0548602
0.0550214
0.0551828
0.0553443
0.0555061
0.0556681
0.0558302
0.0559925
0.0561549
0.0563176
0.0564804
0.0566434
0.0568065
0.0569698
0.0571333
0.0572969
0.0574606
0.0576245
0.0577886
0.0579528
0.0581171
0.0582815
0.0584461
0.0586108
0.0587757
0.0589406
0.0591057
0.0592709
0.0594362
0.0596016
0.0597671
0.0599327
0.0600984
0.0602642
0.0604301
0.0605961
0.0607621
0.0609282
0.0610944
0.0612607
0.061427
0.0615934
0.0617598
0.0619263
0.0620929
0.0622594
0.0624261
0.0625927
0.0627594
0.0629262
0.0630929
0.0632597
0.0634265
0.0635933
0.0637601
0.0639269
0.0640937
0.0642605
0.0644273
0.0645941
0.0647609
0.0649276
0.0650943
0.065261
0.0654276
0.0655942
0.0657607
0.0659271
0.0660935
0.0662599
0.0664261
0.0665923
0.0667584
0.0669244
0.0670903
0.0672561
0.0674219
0.0675875
0.067753
0.0679184
0.0680836
0.0682487
0.0684137
0.0685786
0.0687433
0.0689079
0.0690723
0.0692365
0.0694006
0.0695645
0.0697282
0.0698918
0.0700551
0.0702182
0.0703812
0.070544
0.0707066
0.0708688
0.0710309
0.0711928
0.0713545
0.0715159
0.071677
0.071838
0.0719987
0.0721591
0.0723193
0.072479
0.0726385
0.0727979
0.0729568
0.0731154
0.0732738
0.0734319
0.0735897
0.0737472
0.0739042
0.0740609
0.0742173
0.0743734
0.0745292
0.0746845
0.0748394
0.0749941
0.0751483
0.0753021
0.0754555
0.0756086
0.0757613
0.0759136
0.0760654
0.0762168
0.0763678
0.0765184
0.0766684
0.0768181
0.0769673
0.077116
0.0772643
0.077412
0.0775592
0.077706
0.0778523
0.0779981
0.0781434
0.0782882
0.0784325
0.0785763
0.0787195
0.0788622
0.0790042
0.0791458
0.0792868
0.0794272
0.0795671
0.0797063
0.0798449
0.0799831
0.0801206
0.0802574
0.0803937
0.0805294
0.0806643
0.0807986
0.0809324
0.0810655
0.0811979
0.0813297
0.0814608
0.0815912
0.0817208
0.0818499
0.0819783
0.0821059
0.0822328
0.082359
0.0824845
0.0826093
0.0827333
0.0828565
0.0829791
0.0831008
0.0832218
0.083342
0.0834614
0.08358
0.0836979
0.0838149
0.0839312
0.0840467
0.0841612
0.084275
0.0843879
0.0845
0.0846113
0.0847217
0.0848312
0.0849399
0.0850477
0.0851546
0.0852606
0.0853657
0.0854699
0.0855732
0.0856756
0.0857771
0.0858776
0.0859772
0.0860758
0.0861735
0.0862703
0.086366
0.0864608
0.0865546
0.0866475
0.0867393
0.0868302
0.08692
0.0870089
0.0870967
0.0871834
0.0872691
0.0873539
0.0874376
0.0875202
0.0876017
0.0876822
0.0877616
0.0878399
0.0879171
0.0879933
0.0880684
0.0881423
0.0882152
0.0882869
0.0883575
0.0884269
0.0884953
0.0885625
0.0886285
0.0886934
0.0887571
0.0888196
0.088881
0.0889412
0.0890002
0.089058
0.0891146
0.08917
0.0892242
0.0892771
0.0893289
0.0893794
0.0894286
0.0894766
0.0895234
0.089569
0.0896132
0.0896562
0.0896979
0.0897383
0.0897775
0.0898154
0.0898519
0.0898872
0.0899211
0.0899538
0.0899851
0.0900151
0.0900438
0.0900711
0.0900971
0.0901217
0.090145
0.0901669
0.0901875
0.0902067
0.0902245
0.090241
0.090256
0.0902697
0.090282
0.0902928
0.0903023
0.0903104
0.090317
0.0903222
0.090326
0.0903284
0.0903293
0.0903288
0.0903269
0.0903235
0.0903186
0.0903123
0.0903045
0.0902953
0.0902846
0.0902724
0.0902588
0.0902436
0.090227
0.0902089
0.0901892
0.0901681
0.0901455
0.0901213
0.0900957
0.0900685
0.0900399
0.0900096
0.0899779
0.0899447
0.0899099
0.0898735
0.0898357
0.0897963
0.0897553
0.0897128
0.0896687
0.0896231
0.0895759
0.0895272
0.0894769
0.089425
0.0893716
0.0893166
0.08926
0.0892018
0.0891421
0.0890807
0.0890178
0.0889533
0.0888873
0.0888196
0.0887503
0.0886795
0.088607
0.088533
0.0884573
0.0883801
0.0883012
0.0882208
0.0881388
0.0880551
0.0879699
0.087883
0.0877946
0.0877045
0.0876128
0.0875195
0.0874247
0.0873282
0.0872301
0.0871304
0.0870291
0.0869261
0.0868216
0.0867154
0.0866077
0.0864984
0.0863874
0.0862749
0.0861608
0.086045
0.0859277
0.0858088
0.0856882
0.0855661
0.0854424
0.0853171
0.0851902
0.0850617
0.0849317
0.0848001
0.0846668
0.0845321
0.0843957
0.0842578
0.0841184
0.0839774
0.0838348
0.0836907
0.083545
0.0833978
0.083249
0.0830988
0.082947
0.0827936
0.0826388
0.0824825
0.0823247
0.0821653
0.0820044
0.0818421
0.0816783
0.081513
0.0813463
0.0811781
0.0810085
0.0808374
0.0806649
0.0804909
0.0803156
0.0801388
0.0799606
0.0797811
0.0796001
0.0794178
0.0792342
0.0790492
0.0788628
0.0786752
0.0784862
0.0782959
0.0781043
0.0779114
0.0777172
0.0775219
0.0773252
0.0771273
0.0769282
0.0767279
0.0765264
0.0763238
0.07612
0.075915
0.0757089
0.0755017
0.0752935
0.0750841
0.0748736
0.0746621
0.0744496
0.0742361
0.0740216
0.0738061
0.0735897
0.0733723
0.0731541
0.0729349
0.0727149
0.072494
0.0722723
0.0720498
0.0718265
0.0716024
0.0713777
0.0711522
0.070926
0.0706992
0.0704717
0.0702436
0.070015
0.0697858
0.069556
0.0693258
0.0690951
0.0688639
0.0686324
0.0684004
0.0681681
0.0679355
0.0677026
0.0674694
0.067236
0.0670025
0.0667687
0.0665348
0.0663009
0.0660669
0.0658329
0.0655989
0.065365
0.0651311
0.0648974
0.0646639
0.0644305
0.0641975
0.0639647
0.0637322
0.0635002
0.0632685
0.0630374
0.0628067
0.0625766
0.062347
0.0621181
0.0618898
0.0616623
0.0614356
0.0612097
0.0609847
0.0607606
0.0605374
0.0603153
0.0600942
0.0598743
0.0596554
0.0594378
0.0592215
0.0590066
0.0587929
0.0585807
0.05837
0.0581608
0.0579532
0.0577472
0.0575429
0.0573404
0.0571397
0.0569408
0.0567439
0.056549
0.056356
0.0561652
0.0559765
0.05579
0.0556058
0.0554239
0.0552444
0.0550673
0.0548928
0.0547208
0.0545514
0.0543847
0.0542207
0.0540596
0.0539014
0.053746
0.0535937
0.0534444
0.0532982
0.0531552
0.0530154
0.052879
0.0527459
0.0526163
0.0524902
0.0523676
0.0522486
0.0521334
0.0520219
0.0519143
0.0518105
0.0517107
0.0516149
0.0515233
0.0514358
0.0513525
0.0512735
0.0511989
0.0511288
0.0510631
0.0510021
0.0509457
0.050894
0.0508472
0.0508052
0.0507682
0.0507362
0.0507093
0.0506877
0.0506712
0.0506602
0.0506545
)
;

boundaryField
{
    INLET
    {
        type            cyclic;
    }
    OUTLET
    {
        type            cyclic;
    }
    CENTER
    {
        type            symmetryPlane;
    }
    WALL
    {
        type            fixedValue;
        value           uniform 1e-10;
    }
    frontAndBackPlanes
    {
        type            empty;
    }
}


// ************************************************************************* //
