/*--------------------------------*- C++ -*----------------------------------*\
| =========                 |                                                 |
| \\      /  F ield         | OpenFOAM: The Open Source CFD Toolbox           |
|  \\    /   O peration     | Version:  v1806                                 |
|   \\  /    A nd           | Web:      www.OpenFOAM.com                      |
|    \\/     M anipulation  |                                                 |
\*---------------------------------------------------------------------------*/
FoamFile
{
    version     2.0;
    format      ascii;
    class       volScalarField;
    location    0;
    object      Kj_DD_exp;
}
// * * * * * * * * * * * * * * * * * * * * * * * * * * * * * * * * * * * * * //

dimensions      [0 0 0 0 0 0 0];


internalField   nonuniform List<scalar>
1025
(
0.0041233804
0.012384191
0.020678558
0.029006438
0.037368058
0.045763635
0.054193451
0.062657468
0.071155436
0.07968817
0.088255622
0.096858268
0.10549588
0.114168
0.12287488
0.1316174
0.14039452
0.14920644
0.15805422
0.16693823
0.17585813
0.18481493
0.19380896
0.20283947
0.21190686
0.22101078
0.23014985
0.23932517
0.24853871
0.25778923
0.26707676
0.27640285
0.28576751
0.29516919
0.30460863
0.31408535
0.32360012
0.33315392
0.34274778
0.35238149
0.36205551
0.37176946
0.38152429
0.39131742
0.40114877
0.4110209
0.42093097
0.43087953
0.44086695
0.45089234
0.46096056
0.47106991
0.4812181
0.49140977
0.50164145
0.51191796
0.52223244
0.53259118
0.54299447
0.55344024
0.56393082
0.57446788
0.58504386
0.59565946
0.60631382
0.61701036
0.62775269
0.63853608
0.64936047
0.66022868
0.67113561
0.68208825
0.6930866
0.70412626
0.71521265
0.72634681
0.73753091
0.74875686
0.7600328
0.77135877
0.78272865
0.79413832
0.80559655
0.81710725
0.82866083
0.84026563
0.85191442
0.86361269
0.87536431
0.88717079
0.89902527
0.91091965
0.92286084
0.9348503
0.94688475
0.95897319
0.97110472
0.98328586
0.99551689
1.0077898
1.0201184
1.0324949
1.0449146
1.0573893
1.0699125
1.082488
1.0951127
1.1077855
1.1205175
1.1332892
1.1461148
1.1589933
1.1719322
1.1849281
1.1979801
1.2110756
1.2242303
1.2374444
1.2507047
1.2640277
1.2774161
1.2908536
1.3043552
1.3179208
1.331531
1.3451986
1.3589305
1.3727252
1.3865654
1.4004638
1.4144165
1.4284255
1.4424916
1.4566137
1.4707917
1.4850266
1.4993183
1.5136675
1.5280742
1.5425384
1.5570599
1.5716396
1.5862784
1.6009752
1.6157309
1.6305454
1.645415
1.6603442
1.6753338
1.6903827
1.7054908
1.7206601
1.7358903
1.7511814
1.7665293
1.7819378
1.7974079
1.8129435
1.8285414
1.8442014
1.8599235
1.8757095
1.8915583
1.9074689
1.923443
1.9394815
1.9555834
1.9717495
1.9879758
2.0042623
2.0206126
2.0370409
2.0535338
2.0700816
2.0866937
2.1033796
2.1201296
2.1369436
2.1538256
2.1707713
2.1877862
2.2048702
2.2220329
2.2392683
2.2565612
2.2739266
2.2913584
2.3088531
2.3264167
2.3440522
2.3617691
2.3795421
2.3973867
2.4153028
2.4332903
2.4513423
2.4694655
2.4876596
2.5059246
2.5242697
2.542676
2.5611527
2.5797091
2.5983451
2.6170586
2.6358419
2.6546969
2.6736215
2.6926249
2.7117071
2.7308585
2.7500883
2.7693871
2.7887723
2.8082448
2.8277775
2.84737
2.8670494
2.8868061
2.90664
2.9265692
2.9465662
2.96664
2.9867997
3.007036
3.0273578
3.0477463
3.0682108
3.0887605
3.109395
3.1301052
3.1508908
3.1717597
3.192713
3.2137516
3.2348652
3.2560626
3.2773636
3.2987481
3.3202161
3.3417673
3.3634016
3.3851188
3.4069278
3.4288312
3.450829
3.4729181
3.4950895
3.5173519
3.5396962
3.5621312
3.5846568
3.6072767
3.6299998
3.6528352
3.6757607
3.698767
3.721863
3.7450347
3.7682819
3.7916041
3.8150098
3.838513
3.8621191
3.8858281
3.9096251
3.9335041
3.9574645
3.9815124
4.0056565
4.0298808
4.0542009
4.0786165
4.1031185
4.1277157
4.1524166
4.1772123
4.2021026
4.2270959
4.2521834
4.2773649
4.3026489
4.3280352
4.3535149
4.3790696
4.4047261
4.4304839
4.456343
4.4823221
4.5084019
4.5345632
4.5608249
4.5872065
4.6136968
4.6402668
4.666916
4.6936732
4.7205293
4.7474929
4.7745638
4.8017115
4.828966
4.856327
4.8837942
4.9113451
4.9390018
4.9667867
4.9946769
5.0226809
5.0507897
5.0789794
5.107258
5.1356247
5.1640706
5.1926285
5.2213229
5.2501202
5.2790373
5.3080654
5.3372041
5.366427
5.39576
5.4252115
5.4547724
5.4844154
5.5141481
5.5439979
5.5739845
5.6041162
5.6343729
5.6647375
5.6952182
5.7258231
5.7565351
5.7873624
5.818313
5.8493869
5.8805751
5.9118859
5.943319
5.9748659
6.006567
6.0383897
6.0703339
6.102399
6.1345849
6.1668997
6.1993693
6.2319589
6.2646767
6.2975222
6.3304954
6.3636238
6.3968793
6.4302615
6.4637329
6.4973387
6.5310702
6.5648885
6.5988319
6.6329082
6.6671171
6.70145
6.7359148
6.7705114
6.8052806
6.8402227
6.875338
6.9106349
6.9460626
6.9815774
7.0172305
7.0530214
7.0889499
7.1250072
7.1611558
7.1974409
7.2338618
7.2704265
7.3071265
7.3439614
7.3809389
7.4180588
7.4553206
7.4927162
7.5303033
7.5680902
7.606018
7.6440867
7.6823479
7.7207492
7.7592984
7.797995
7.836839
7.8758296
7.9149667
7.9542496
7.9936783
8.0332522
8.0729792
8.1129167
8.1530571
8.1933496
8.2337941
8.27439
8.3151371
8.3560348
8.3970829
8.4382887
8.4796519
8.5211642
8.5628332
8.6046582
8.6465731
8.6886511
8.7308836
8.7732704
8.8157426
8.8583759
8.9011695
8.9441231
8.9872363
9.0305087
9.0740201
9.1176822
9.1615104
9.2055039
9.2496548
9.2939779
9.3384655
9.3831862
9.4280706
9.4731258
9.5183516
9.5637471
9.6093044
9.6550307
9.7009257
9.746989
9.7932272
9.8396327
9.8862125
9.9329586
9.9799653
10.027153
10.074505
10.12194
10.169554
10.217339
10.265209
10.313257
10.361481
10.409881
10.458552
10.507406
10.556435
10.605639
10.655023
10.704597
10.754452
10.804487
10.854702
10.905096
10.955683
11.006456
11.057407
11.108542
11.159751
11.211151
11.26274
11.314399
11.366257
11.418276
11.470493
11.522861
11.575391
11.628125
11.681098
11.734263
11.787643
11.841201
11.894981
11.948974
12.003138
12.057569
12.112155
12.166889
12.221824
12.276931
12.332278
12.387756
12.443411
12.499298
12.55536
12.61159
12.668007
12.724569
12.781259
12.838091
12.895128
12.95231
13.009645
13.067159
13.124876
13.182795
13.240906
13.299177
13.357639
13.416235
13.475043
13.534062
13.593235
13.652633
13.71224
13.772005
13.831932
13.892055
13.952314
14.012819
14.073558
14.134508
14.195648
14.256939
14.318479
14.380282
14.442341
14.504544
14.566902
14.629458
14.692255
14.755191
14.81838
14.881868
14.945597
15.009551
15.073785
15.138299
15.203106
15.26824
15.333493
15.39901
15.464777
15.530771
15.596882
15.663226
15.72986
15.796763
15.863902
15.931224
15.99889
16.066703
16.134605
16.202775
16.271141
16.339775
16.408674
16.477723
16.547063
16.616607
16.68649
16.756443
16.82676
16.897404
16.968179
17.039082
17.110216
17.181463
17.252869
17.324622
17.396676
17.469096
17.541835
17.614922
17.688176
17.761712
17.835413
17.909248
17.983486
18.058007
18.132688
18.207495
18.282521
18.357888
18.433406
18.509075
18.585145
18.661393
18.737979
18.814837
18.892034
18.969505
19.047375
19.125615
19.20423
19.283079
19.36209
19.44147
19.521079
19.60103
19.681386
19.762211
19.84337
19.924679
20.006098
20.087698
20.169539
20.251672
20.334172
20.417001
20.500003
20.583196
20.666717
20.750363
20.834153
20.918308
21.002828
21.087753
21.172708
21.257816
21.34322
21.428919
21.514809
21.600886
21.687314
21.774031
21.860931
21.948071
22.03545
22.123052
22.210982
22.299252
22.3878
22.476613
22.565751
22.655222
22.744967
22.834983
22.925219
23.015673
23.106453
23.197497
23.288754
23.380272
23.47205
23.564146
23.656503
23.749061
23.841931
23.935111
24.028483
24.122106
24.215977
24.310093
24.404511
24.499227
24.594241
24.689551
24.785154
24.88105
24.977179
25.073597
25.17042
25.267529
25.364921
25.462594
25.560548
25.65878
25.757345
25.856184
25.955296
26.054734
26.154442
26.254416
26.354712
26.455395
26.55634
26.65753
26.759033
26.860793
26.962878
27.06527
27.168021
27.271076
27.374378
27.477978
27.581875
27.685991
27.7904
27.895099
28.00014
28.105546
28.211236
28.317128
28.4233
28.529802
28.636633
28.743655
28.850864
28.95831
29.066074
29.174101
29.28239
29.391042
29.500003
29.609218
29.718737
29.828558
29.938678
30.049096
30.159808
30.270812
30.382106
30.493781
30.605838
30.718228
30.831048
30.944243
31.057814
31.171659
31.285827
31.400315
31.515018
31.629986
31.745318
31.861115
31.977218
32.093576
32.210235
32.327243
32.444547
32.562095
32.679933
32.798108
32.916568
33.03536
33.15443
33.273777
33.393446
33.513385
33.633522
33.753924
33.874635
33.995652
34.116973
34.238593
34.360339
34.482378
34.604708
34.727372
34.85032
34.973501
35.097008
35.220967
35.345198
35.469564
35.594241
35.719179
35.844375
35.96978
36.095342
36.221151
36.347345
36.473969
36.600922
36.728009
36.855226
36.982714
37.11047
37.238536
37.366863
37.495446
37.624128
37.753105
37.882528
38.012193
38.14214
38.272367
38.402868
38.533478
38.664145
38.795075
38.926305
39.05779
39.189524
39.321546
39.453637
39.585966
39.718569
39.851401
39.984499
40.11786
40.251436
40.385266
40.519387
40.653753
40.788318
40.923307
41.05857
41.19406
41.329774
41.465748
41.601936
41.738375
41.875059
42.011943
42.149064
42.286375
42.423707
42.561301
42.69911
42.836919
42.97472
43.112761
43.250995
43.389417
43.528062
43.666924
43.806
43.945242
44.084687
44.224556
44.364578
44.504825
44.645291
44.785894
44.926667
45.067642
45.208814
45.350176
45.491686
45.633337
45.775199
45.916977
46.058879
46.201226
46.343978
46.487133
46.630426
46.773853
46.91748
47.061227
47.20482
47.348321
47.491958
47.635687
47.779539
47.92354
48.067369
48.2113
48.355323
48.499434
48.643695
48.788062
48.932497
49.077025
49.221639
49.366333
49.511098
49.655929
49.800817
49.945787
50.090834
50.235916
50.381375
50.526888
50.672448
50.818046
50.964002
51.109982
51.25631
51.403015
51.549721
51.696455
51.843549
51.990653
52.137412
52.284132
52.430836
52.577901
52.724964
52.871986
53.018958
53.1659
53.312805
53.460004
53.607552
53.755037
53.90242
54.049751
54.19702
54.344216
54.491301
54.638264
54.785125
54.931902
55.07896
55.226265
55.373457
55.520527
55.667435
55.814199
55.96123
56.108067
56.254302
56.400375
56.546248
56.691908
56.836932
56.981719
57.12673
57.271509
57.41559
57.559412
57.703424
57.847179
57.990174
58.13286
58.275249
58.41733
58.559569
58.701957
58.844001
58.985711
59.127072
59.268049
59.408625
59.548836
59.688133
59.826986
59.96491
60.102383
60.23991
60.377002
60.513622
60.64973
60.785335
60.920983
61.056097
61.190114
61.323583
61.45649
61.589356
61.722192
61.85444
61.986061
62.11706
62.247416
62.377095
62.506096
62.634402
62.761994
62.888853
63.015583
63.141563
63.266756
63.390544
63.512901
63.634441
63.755144
63.874953
63.993884
64.111996
64.228975
64.344751
64.459575
64.573213
64.685772
64.797126
64.9071
65.015922
65.123666
65.230361
65.335708
65.43964
65.542393
65.644081
65.744611
65.843815
65.941679
66.038163
66.133106
66.226929
66.319226
66.40982
66.499063
66.586926
66.673219
66.757921
66.840786
66.922465
67.002922
67.081597
67.158846
67.234481
67.308322
67.380563
67.450694
67.519005
67.585711
67.650526
67.713659
67.775083
67.83435
67.891503
67.946336
67.999392
68.050641
68.099367
68.145527
68.189073
68.229959
68.26892
68.305829
68.340728
68.372874
68.402047
68.428635
68.452678
68.474396
68.493116
68.509048
68.521782
68.531624
68.538152
68.541215
)
;

boundaryField
{
INLET
{
    type            cyclic;
}
OUTLET
{
    type            cyclic;
}
WALL
{
    type            fixedValue;
    value           uniform 0;
}
CENTER
{
    type            symmetryPlane;
}
frontAndBackPlanes
{
    type            empty;
}
}


// ************************************************************************* //

