/*--------------------------------*- C++ -*----------------------------------*\
| =========                 |                                                 |
| \\      /  F ield         | OpenFOAM: The Open Source CFD Toolbox           |
|  \\    /   O peration     | Version:  v1806                                 |
|   \\  /    A nd           | Web:      www.OpenFOAM.com                      |
|    \\/     M anipulation  |                                                 |
\*---------------------------------------------------------------------------*/
FoamFile
{
    version     2.0;
    format      ascii;
    class       volScalarField;
    location    0;
    object      Kj_exp;
}
// * * * * * * * * * * * * * * * * * * * * * * * * * * * * * * * * * * * * * //

dimensions      [0 0 0 0 0 0 0];


internalField   nonuniform List<scalar>
1025
(
102.51143
307.88359
514.08997
721.12953
929.00792
1137.7305
1347.3043
1557.7284
1768.9965
1981.1289
2194.1245
2407.995
2622.7347
2838.3325
3054.7944
3272.1424
3490.3504
3709.4238
3929.3887
4150.254
4372.0119
4594.6872
4818.2879
5042.7954
5268.2199
5494.5528
5721.7594
5949.867
6178.9249
6408.9024
6639.7997
6871.6559
7104.4708
7338.2061
7572.8801
7808.4811
8045.0279
8282.5452
8521.0582
8760.562
9001.068
9242.5668
9485.0817
9728.5489
9972.9662
10218.397
10464.772
10712.103
10960.401
11209.642
11459.948
11711.277
11963.571
12216.946
12471.316
12726.801
12983.229
13240.758
13499.395
13759.087
14019.894
14281.856
14544.785
14808.7
15073.578
15339.505
15606.57
15874.656
16143.762
16413.956
16685.114
16957.407
17230.838
17505.295
17780.914
18057.72
18335.768
18614.857
18895.188
19176.763
19459.43
19743.086
20027.949
20314.117
20601.351
20889.858
21179.459
21470.289
21762.447
22055.968
22350.682
22646.389
22943.259
23241.329
23540.518
23841.048
24142.651
24445.486
24749.562
25054.678
25361.18
25668.872
25977.639
26287.773
26599.114
26911.752
27225.614
27540.674
27857.203
28174.721
28493.579
28813.753
29135.427
29458.518
29783.003
30108.57
30435.61
30764.126
31093.79
31425.015
31757.863
32091.933
32427.595
32764.852
33103.215
33443.004
33784.394
34127.343
34471.425
34816.954
35163.833
35512.11
35861.807
36212.897
36565.378
36919.272
37274.576
37631.312
37989.479
38349.073
38710.092
39072.558
39436.494
39801.872
40168.713
40537.016
40906.69
41277.844
41650.5
42024.632
42400.236
42777.359
43155.998
43536.15
43917.714
44300.786
44685.388
45071.618
45459.397
45848.722
46239.59
46632.046
47026.064
47421.616
47818.749
48217.483
48617.793
49019.697
49423.1
49827.998
50234.482
50642.908
51052.938
51464.334
51877.328
52292.156
52708.579
53126.591
53546.293
53967.581
54390.588
54815.315
55241.996
55670.487
56100.405
56532.127
56965.5
57400.436
57837.083
58275.522
58715.982
59157.835
59601.47
60046.883
60494.07
60942.862
61393.423
61845.748
62299.834
62755.911
63213.51
63672.861
64134.192
64597.501
65062.737
65529.711
65998.463
66468.949
66941.394
67415.795
67891.918
68369.991
68849.779
69331.716
69815.822
70301.423
70788.514
71277.762
71768.934
72262.026
72757.487
73254.632
73753.687
74254.878
74757.972
75263.194
75770.071
76278.841
76789.726
77302.722
77817.598
78334.35
78853.172
79374.09
79897.133
80422.037
80949.026
81478.591
82010.233
82543.948
83079.733
83617.584
84157.494
84699.689
85244.229
85791.116
86340.274
86891.477
87444.944
88000.447
88558.204
89118.213
89680.566
90245.486
90813.198
91383.148
91955.109
92529.298
93105.371
93683.319
94263.132
94845.021
95429.336
96016.207
96605.636
97197.256
97790.911
98386.591
98984.447
99584.692
100186.93
100791.56
101398.55
102007.7
102619.21
103233.3
103849.75
104468.54
105089.9
105713.6
106339.64
106968.23
107599.36
108232.81
108868.12
109505.97
110146.33
110789.22
111435.08
112083.46
112733.85
113386.74
114042.62
114701.19
115361.75
116024.28
116689.49
117357.16
118027.5
118700.51
119375.43
120053
120733.23
121416.09
122101.03
122788.61
123479.37
124172.75
124868.95
125567.77
126268.59
126971.63
127676.85
128384.05
129094.02
129807.4
130523.33
131242.24
131963.9
132688.32
133414.83
134144.08
134876.27
135611.19
136348.14
137087.33
137829.43
138574.92
139324.03
140076.24
140831.13
141588.92
142349.78
143113.31
143879.71
144649.18
145421.7
146197.08
146975.49
147756.95
148541.24
149329.36
150120.51
150914.67
151711.84
152512.02
153315.4
154122.62
154932.83
155746.23
156562.81
157382.55
158206.16
159032.92
159862.84
160694.97
161530.45
162369.04
163209.8
164053.67
164900.84
165751.31
166604.86
167461.69
168321.8
169186.2
170054.89
170927.89
171805.41
172686.18
173569.11
174455.49
175345.28
176238.5
177134.92
178033.61
178935.7
179841.16
180750.19
181662.59
182578.35
183497.65
184420.48
185346.85
186276.54
187211
188150.42
189093.34
190039.77
190990.98
191945.67
192904.05
193866.08
194831.78
195801.13
196774.12
197750.73
198730.97
199714.82
200702.47
201695.36
202693.29
203695
204700.49
205709.75
206722.76
207739.52
208760.02
209784.44
210812.77
211844.81
212880.74
213920.55
214962.6
216008.7
217058.64
218112.42
219168.32
220228.23
221292.12
222359.99
223431.83
224507.63
225589.37
226674.85
227764.46
228858.19
229955.82
231057.74
232163.75
233275.55
234391.42
235511.54
236635.9
237764.48
238897.08
240033.88
241174.88
242320.06
243469.58
244623.27
245781.29
246943.45
248112.08
249285.21
250462.44
251641.72
252825.46
254013.44
255203.54
256398.05
257596.94
258800.22
260010.24
261224.8
262443.72
263666.96
264894.71
266127.15
267366.6
268610.53
269858.92
271111.76
272369.43
273631.7
274898.38
276169.64
277442.76
278720.62
280003.18
281287.46
282576.71
283869.94
285168.11
286470.03
287775.98
289087
290403.98
291725.71
293052.8
294384.3
295721.31
297063.65
298410.22
299763.42
301120.49
302481.24
303846.96
305217
306592.98
307972.22
309355.85
310745.25
312139.01
313536.94
314939.54
316345.73
317755.1
319167.99
320585.98
322007.6
323433
324862.87
326297.77
327737.68
329182.38
330631.06
332084.48
333541.25
335003.27
336470.54
337941.64
339418.35
340900.24
342386.04
343875.89
345370.61
346868.71
348372.92
349882.97
351398.24
352918.25
354441.99
355971.95
357508.42
359051.28
360597.72
362147.99
363703.19
365264.41
366829.04
368399.98
369978.37
371562.73
373152.71
374749.63
376353.5
377964.66
379583.98
381206.23
382835.05
384470.08
386110.76
387754.35
389403.71
391060.31
392723.58
394392.73
396066.43
397748.66
399434.57
401122.68
402817.46
404517.12
406223.41
407936.31
409652.96
411376.8
413105.74
414843.1
416582.21
418330.37
420086.65
421846.18
423608.89
425377.37
427148.63
428923.86
430707.73
432499.06
434299.49
436107.86
437924.87
439746.05
441574.22
443406.5
445242.11
447087.73
448940.42
450797.06
452656.84
454522.07
456395.76
458273.22
460154.41
462045.59
463941.21
465845.22
467755.98
469675.18
471601.18
473537.11
475482.24
477436.69
479396.95
481361.24
483334.71
485313.87
487301.53
489299.27
491308.66
493326.36
495347.78
497371.93
499400.59
501435.25
503477.15
505528.19
507587.41
509650.91
511719.19
513795.59
515875.12
517958.22
520050.4
522151.65
524262.98
526375.04
528490.91
530614.15
532744.72
534880.02
537019.99
539168.68
541324.56
543484.97
545651.37
547823.7
550001.58
552187.6
554382.07
556583.46
558791.46
561007.51
563231.86
565463
567700.89
569944.25
572193.03
574449.91
576713.36
578982.09
581257.33
583539.03
585828.62
588124.71
590425.81
592734.65
595051.19
597372.52
599700.08
602033.8
604373.64
606720.95
609075.7
611437.84
613807.34
616184.14
618568.2
620958.07
623355.13
625762.24
628176.45
630597.71
633025.98
635461.21
637903.36
640353.77
642811.01
645275.04
647747.18
650226.01
652711.48
655204.94
657708.02
660217.61
662733.31
665256.78
667786.62
670324.55
672870.12
675424.63
677986.68
680554.86
683130.47
685713.46
688301.89
690897.6
693500.52
696111.95
698732.44
701360
703992.58
706632.13
709279.89
711935.82
714596.49
717261.81
719933.02
722612.15
725297.82
727989.98
730691.18
733400.06
736115.26
738838.02
741568.28
744305.98
747051.07
749803.49
752563.16
755330.04
758106.41
760892.24
763686.38
766491.19
769305.35
772128.83
774959.14
777797.47
780643.75
783495.4
786353.61
789220.88
792099.7
794986.15
797878.92
800779.19
803688.13
806604.42
809526.78
812456.36
815394.32
818339.35
821292.63
824252.84
827219.93
830195.02
833176.83
836163.56
839156.86
842157.85
845166.47
848182.63
851206.24
854232.96
857266.98
860308.21
863357.77
866414.39
869476.8
872547.3
875629.06
878717.57
881809.42
884909.01
888015.1
891127.6
894245.29
897366.9
900494.64
903631.96
906779.95
909936.12
913095.65
916258.38
919427.88
922604.03
925787.87
928978.2
932174.91
935374.08
938580.57
941798.16
945021.76
948252.38
951489.95
954734.34
957981.43
961229.96
964485
967747.53
971016.36
974291.4
977573.61
980857.54
984147.35
987444.01
990746.34
994055.3
997370.78
1000691.6
1004018.8
1007353.2
1010693.6
1014039.1
1017395
1020757.8
1024126.2
1027500.2
1030880.6
1034266.4
1037658.4
1041056.5
1044459.6
1047868.6
1051282.3
1054696.5
1058117.2
1061543.3
1064969.3
1068395.2
1071827.1
1075263.7
1078705
1082151.9
1085604.1
1089061.7
1092523.4
1095990.2
1099467.4
1102948.5
1106435.2
1109927.3
1113422.9
1116922.6
1120427.4
1123937.1
1127451.5
1130969.6
1134491.2
1138018
1141542.7
1145070.6
1148609.5
1152158.4
1155717.4
1159279.8
1162845.5
1166416.2
1169989.9
1173559.8
1177127.4
1180698.4
1184271.6
1187847.9
1191427.9
1195003.7
1198581.9
1202162.5
1205745.2
1209331.7
1212920.8
1216511.6
1220104.7
1223700
1227297.2
1230896.2
1234496.9
1238098.9
1241703.1
1245309.1
1248915.9
1252532.2
1256149.8
1259768.6
1263388.3
1267016.9
1270646.1
1274284
1277931.2
1281578.5
1285226.4
1288883.3
1292540.5
1296189.1
1299836.7
1303483.9
1307140.1
1310796.2
1314451.3
1318105.2
1321758.3
1325410.5
1329070
1332738.3
1336404.9
1340069
1343731.8
1347393
1351052.5
1354709.1
1358362.8
1362013.9
1365662.9
1369319
1372981.1
1376640.4
1380296.7
1383949
1387597.7
1391253.1
1394903.6
1398539.1
1402170.7
1405797.2
1409418.5
1413023.9
1416623.5
1420228.6
1423827.9
1427409.9
1430985.5
1434565.8
1438139.7
1441694.7
1445242
1448781.9
1452314.2
1455850.4
1459390.3
1462921.7
1466444.7
1469959.1
1473463.9
1476958.8
1480444.6
1483907.7
1487359.7
1490788.6
1494206.3
1497625.4
1501033.7
1504430.2
1507814
1511185.2
1514557.6
1517916.7
1521248.4
1524566.6
1527870.8
1531174
1534476.5
1537764.3
1541036.5
1544293.3
1547534.1
1550758
1553965.1
1557154.9
1560327
1563480.8
1566631.5
1569763.5
1572875.9
1575953.4
1578995.3
1582016.9
1585017.7
1587996.3
1590953
1593889.4
1596797.6
1599675.9
1602530.6
1605355.7
1608154.1
1610922.4
1613656.5
1616361.9
1619040.5
1621693.1
1624312.1
1626896
1629450.5
1631978.6
1634477.9
1636944.2
1639377.2
1641775.9
1644136.3
1646468.8
1648763.4
1651015.7
1653234.3
1655418.7
1657564
1659669.8
1661729.9
1663760.5
1665760.8
1667716.7
1669637.2
1671517.6
1673353.3
1675149.3
1676892.8
1678591.1
1680249.5
1681860.9
1683430.4
1684957.5
1686430.9
1687851.8
1689215
1690534
1691808.1
1693019.5
1694167.1
1695249.7
1696266.1
1697234.8
1698152.4
1699020
1699819.2
1700544.4
1701205.4
1701803.2
1702343.1
1702808.5
1703204.6
1703521.2
1703765.8
1703928.1
1704004.3
)
;

boundaryField
{
INLET
{
    type            cyclic;
}
OUTLET
{
    type            cyclic;
}
WALL
{
    type            fixedValue;
    value           uniform 0;
}
CENTER
{
    type            symmetryPlane;
}
frontAndBackPlanes
{
    type            empty;
}
}


// ************************************************************************* //

