/*--------------------------------*- C++ -*----------------------------------*\
| =========                 |                                                 |
| \\      /  F ield         | OpenFOAM: The Open Source CFD Toolbox           |
|  \\    /   O peration     | Version:  v1806                                 |
|   \\  /    A nd           | Web:      www.OpenFOAM.com                      |
|    \\/     M anipulation  |                                                 |
\*---------------------------------------------------------------------------*/
FoamFile
{
    version     2.0;
    format      ascii;
    class       volScalarField;
    location    0;
    object      Kj_Full_imp1;
}
// * * * * * * * * * * * * * * * * * * * * * * * * * * * * * * * * * * * * * //

dimensions      [0 0 0 0 0 0 0];


internalField   nonuniform List<scalar>
1025
(
966.21477
2901.8409
4845.2335
6796.3817
8755.3383
10722.153
12696.891
14679.543
16670.216
18668.913
20675.601
22690.384
24713.203
26744.234
28783.557
30831.058
32886.851
34950.967
37023.213
39103.661
41192.175
43288.978
45394.124
47507.925
49630.487
51761.614
53900.861
56048.415
58204.596
60368.956
62542.09
64723.423
66913.665
69113.226
71321.24
73538.419
75764.765
78000.332
80245.154
82498.978
84761.789
87034.157
89315.735
91606.63
93906.345
96214.969
98532.47
100858.45
103193.8
105539.05
107893.17
110256.62
112629.97
115013.5
117407.25
119811.7
122226.26
124649.84
127083.35
129527.4
131981.42
134445.98
136919.51
139402.36
141896.2
144399.56
146913.27
149436.22
151968.63
154511.37
157063.25
159625.92
162199.39
164782.62
167376.89
169982.45
172597.41
175222.81
177857.81
180502.65
183159.03
185826.32
188503.89
191191.72
193891.24
196601.6
199324.31
202057.07
204800.77
207555.73
210320.3
213096.1
215884.42
218681.99
221492.1
224313.1
227146.27
229989.65
232843.67
235710.92
238590.99
241482.46
244384.67
247296.5
250221.66
253157
256102.25
259057.6
262025.09
265005.9
268000.99
271006.67
274025.67
277058.72
280102.5
283160.9
286233.93
289318.37
292413.32
295519.27
298639.03
301771.1
304915.46
308075.06
311248.36
314434.74
317632.72
320845.01
324070.8
327309.21
330559.97
333823.53
337100.08
340388.68
343689.99
347004.17
350331.14
353671.1
357024.01
360389.86
363768.61
367159.7
370564.09
373981.53
377412.2
380856.1
384313.18
387783.66
391267.72
394765.97
398277.52
401802.81
405341.79
408894.44
412460.72
416040.62
419634.32
423240.84
426860.35
430493.79
434142.13
437804.79
441481.42
445171.67
448875.96
452594.46
456326.93
460074.65
463837.83
467614.2
471404.63
475212.43
479035.61
482870.75
486720.04
490585.65
494465.33
498360.31
502271.5
506196.67
510135.78
514087.48
518055.25
522039.05
526036.63
530050.17
534079.61
538122.73
542179.45
546251.79
550341.71
554444.8
558563.22
562695.42
566841.35
571002.47
575178.73
579370.08
583576.48
587800.07
592036.46
596287.78
600556.14
604843.17
609144.99
613463.29
617798.43
622148.25
626514.85
630898.14
635295.96
639710.4
644141.14
648588.39
653054.26
657536.22
662031.86
666545.27
671076.4
675623.21
680187.77
684765.81
689357.3
693964.22
698586.55
703226.34
707881.4
712551.68
717239.22
721943.97
726663.74
731398.52
736152.42
740923.25
745708.89
750509.32
755328.95
760169.81
765027.32
769898.92
774787.07
779691.27
784610.65
789547.1
794498.9
799466.08
804450.66
809450.5
814467.52
819499.69
824548.95
829615.16
834693.38
839788.41
844902.18
850032.68
855177.76
860339.32
865514.24
870702.39
875906.81
881129.38
886370.04
891626.72
896899.37
902187.83
907493.39
912814.5
918148.57
923498.36
928864.42
934246.71
939648.65
945064.7
950496.7
955946.45
961411.91
966893.04
972391.7
977905.79
983435.22
988985.67
994557.06
1000143.5
1005745
1011363.3
1016994.2
1022641.8
1028305.8
1033986.3
1039678.5
1045379.7
1051090.9
1056816
1062555.5
1068309.3
1074079.1
1079863
1085662.7
1091478.2
1097307.3
1103151.9
1109011.8
1114886.9
1120772.4
1126672.8
1132588
1138518
1144464.2
1150425
1156400.1
1162396.2
1168408.1
1174429
1180462.6
1186503.1
1192547.6
1198604.9
1204675.5
1210759.4
1216862
1222982.9
1229118.6
1235267
1241428.1
1247603.3
1253792.7
1259994.4
1266210
1272440.8
1278683.3
1284939.3
1291210.3
1297492.5
1303787.5
1310091
1316402.8
1322712.5
1329017.2
1335322.2
1341642
1347973.4
1354316.3
1360664.3
1367017.2
1373381.1
1379757.7
1386145
1392549.3
1398965.8
1405394.1
1411834.2
1418284.3
1424745.8
1431211.5
1437688.3
1444184.6
1450691.5
1457201.4
1463705
1470186.5
1476653.9
1483122.3
1489600.1
1496087.3
1502583.6
1509089
1515610.7
1522150
1528697.9
1535254.2
1541820.1
1548403.3
1555003.7
1561619.5
1568252.3
1574901.7
1581568
1588244.3
1594927.8
1601593.1
1608216.4
1614821.9
1621435
1628054.2
1634672.4
1641298.8
1647932.2
1654572.3
1661218.7
1667871.2
1674531.3
1681198.5
1687864
1694528
1701198.7
1707875.6
1714558.5
1721238.6
1727917.1
1734571.7
1741163.1
1747709
1754255.3
1760807.1
1767363.9
1773925.4
1780491.3
1787063.2
1793631.5
1800203.6
1806780.6
1813362.7
1819949.8
1826542.8
1833140.3
1839741.8
1846347.3
1852967.8
1859581.2
1866128.7
1872605.4
1879068.6
1885536.7
1892007.1
1898481.9
1904960.9
1911432.9
1917910
1924401
1930904.4
1937411.3
1943922.3
1950436.8
1956955.4
1963476.9
1970002.2
1976530.7
1983015
1989394.4
1995702
2001999.9
2008300.3
2014614.5
2020932.6
2027252.7
2033564.9
2039880.7
2046209.7
2052552.7
2058898.6
2065247.6
2071599
2077952.8
2084310.1
2090680.5
2096995.1
2103181.8
2109285.1
2115376.3
2121470.3
2127567.2
2133666.4
2139780.5
2145908.3
2152037.5
2158169.7
2164304.7
2170442.5
2176583.3
2182725.8
2188859.5
2194985.1
2201074.1
2207044.2
2212891
2218697.3
2224507.2
2230331.2
2236157.5
2241975.1
2247796.2
2253631.2
2259480.4
2265344.5
2271223.1
2277103.4
2282974.6
2288848.6
2294725.8
2300537.2
2306179.4
2311714.8
2317221.6
2322719.8
2328221.5
2333715.2
2339212.1
2344711.7
2350215
2355721.7
2361231
2366744
2372259.2
2377777.5
2383311
2388786.6
2394110
2399297.7
2404456.3
2409619.2
2414785.4
2419943.9
2425105.8
2430283.1
2435476.3
2440672.7
2445872.1
2451075.4
2456294.4
2461528.1
2466756.5
2471884.6
2476842.8
2481715.6
2486593.4
2491475.8
2496350.6
2501229.8
2506125.3
2511036.5
2515951.6
2520870.2
2525793
2530721.4
2535653.6
2540585.3
2545421
2550070.8
2554631.8
2559197.5
2563779.7
2568378.2
2572981.2
2577577.9
2582168.2
2586763
2591363.4
2595968.3
2600588.4
2605225.6
2609820.6
2614278.5
2618608.4
2622895.2
2627188
2631492.5
2635813.3
2640144.2
2644481
2648819.4
2653162.8
2657514.8
2661883.1
2666267.8
2670620.3
2674843
2678926.5
2682961.9
2686998.3
2691039.6
2695089.4
2699147.6
2703210.8
2707268.2
2711330
2715406.2
2719490.2
2723582.4
2727622.2
2731509.2
2735294
2739064.8
2742840.3
2746619.7
2750405.9
2754198.9
2757998.9
2761806.7
2765618.4
2769433.5
2773258.3
2777044.9
2780715.7
2784271
2787793.3
2791322.1
2794857.9
2798396.7
2801941.7
2805496.3
2809066.5
2812642.3
2816213.6
2819791.3
2823321.7
2826721.8
2830028
2833318
2836612.8
2839915
2843222.9
2846526.3
2849837.2
2853153.6
2856475.6
2859817.4
2863144.1
2866382.2
2869502.6
2872577.4
2875656.6
2878740.6
2881824.7
2884915.3
2888020.2
2891141.5
2894269.2
2897400.8
2900526.4
2903590.3
2906548.1
2909454.9
2912367.3
2915288.6
2918216
2921158.2
2924116.2
2927080.3
2930051.9
2933030
2935986.4
2938857.3
2941637.6
2944390.6
2947141.8
2949889.8
2952644.7
2955406.4
2958171.4
2960943
2963721.5
2966505.8
2969228.7
2971836.7
2974388.8
2976947.2
2979511.2
2982081.3
2984656
2987245.7
2989851.9
2992463.8
2995081.7
2997658.1
3000141.5
3002576.2
3005022.8
3007474.6
3009931.4
3012395.5
3014857
3017323.5
3019796.1
3022270.4
3024697.4
3027043.5
3029355.4
3031671.5
3033992.4
3036320.1
3038655.2
3040996
3043341.6
3045693.5
3048026.3
3050297
3052522.7
3054737.2
3056958.3
3059184.5
3061416
3063653.3
3065896.1
3068145
3070379.1
3072567
3074696.8
3076807.4
3078923.7
3081044.7
3083178.4
3085327.9
3087492.4
3089661.3
3091824.3
3093946.5
3096015.8
3098066.8
3100123.7
3102186.2
3104254.5
3106327.9
3108397.7
3110465.5
3112521.4
3114532.3
3116495.3
3118449.4
3120417.7
3122400.6
3124388.9
3126382.1
3128380.6
3130383.2
3132368.4
3134302.8
3136216.3
3138135.7
3140060.4
3141990
3143924.4
3145873.4
3147828.5
3149767.7
3151663.8
3153534
3155405.2
3157272.7
3159146
3161024.2
3162908.1
3164806.2
3166691.8
3168540.4
3170363.9
3172186.5
3174014.5
3175848.9
3177696.6
3179557.3
3181424.3
3183276.9
3185092.4
3186889
3188688.9
3190494.3
3192304.9
3194121.2
3195943
3197764.9
3199566.1
3201338
3203100.3
3204858.5
3206622.4
3208392.3
3210167.7
3211948.4
3213727.7
3215486.9
3217229.3
3218973.7
3220714.9
3222452.2
3224195.2
3225943.7
3227688.3
3229421
3231133.1
3232842.4
3234558.3
3236270.7
3237988.1
3239719.8
3241447
3243158.6
3244855.7
3246545
3248237.5
3249938.4
3251647.3
3253359.2
3255054.8
3256737.8
3258408
3260079.9
3261755.1
3263429.2
3265111.2
3266801.6
3268493.9
3270163.5
3271825.9
3273491.2
3275159.7
3276831
3278505.3
3280187.9
3281867.7
3283534.5
3285204.2
3286882.6
3288558.8
3290243.1
3291935.8
3293606.3
3295249.7
3296890.8
3298540.1
3300192.4
3301842.4
3303495.6
3305152
3306795.9
3308427.7
3310062.6
3311700.5
3313341.4
3314990.2
3316647.2
3318303
3319946.7
3321588.1
3323237.9
3324890.8
3326551.5
3328215.5
3329851.4
3331475.8
3333103
3334737.8
3336376
3338017.2
3339656.2
3341283.3
3342892.6
3344499.8
3346114.7
3347742.2
3349372.5
3350991.3
3352593.6
3354193.8
3355801.7
3357417.4
3359036
3360652.7
3362262.6
3363860.8
3365457.2
3367061.4
3368673
3370292.5
3371905.3
3373501.9
3375096.6
3376694.2
3378294.7
3379902.7
3381509.1
3383104
3384697.2
3386293.2
3387887.4
3389489.2
3391098.6
3392696.7
3394283.6
3395873.6
3397452.9
3399034.9
3400633.5
3402221
3403783.5
3405349
3406921.9
3408502
3410094.6
3411676.2
3413251.5
3414825
3416401.2
3417985.1
3419567.4
3421138.9
3422703.8
3424256.9
3425802.4
3427335.4
3428862
3430393.2
3431918
3433440.9
3434966.6
3436499.5
3438030.5
3439546.5
3441056.1
3442573
3444092.6
3445610.4
3447117.6
3448614.3
3450113.7
3451620.2
3453129.3
3454628.1
3456133.3
3457637
3459139.1
3460648.4
3462160.8
3463654
3465136.8
3466626.8
3468120
3469593.5
3471056.5
3472509.4
3473960.7
3475414.6
3476852.5
3478280.3
3479697.6
3481113.3
3482507.9
3483900.7
3485287.3
3486683.6
3488073.9
3489466.7
3490857.8
3492234.6
3493601.3
3494966.2
3496308.7
3497649.1
3499000.6
3500359.2
3501737.6
3503140.9
3504534.5
3505909.6
3507274.9
3508617
3509962
3511301.6
3512618.7
3513925.6
3515212.5
3516498
3517792.9
3519065.2
3520332.1
3521602
3522866.5
3524108.4
3525303.5
3526500.9
3527705.4
3528891.4
3530046.8
3531192.4
3532344.5
3533486.8
3534598.4
3535691.9
3536760.9
3537796.5
3538805.8
3539789
3540765.4
3541770.9
3542758.1
3543711
3544645.4
3545610.2
3546560.9
3547476.9
3548345.6
3549181.7
3549968.8
3550688.9
3551386.4
3552081.6
3552757.1
3553392.4
3554035.4
3554672.9
3555290.7
3555871.1
3556424.9
3556968.9
3557489
3557965
3558414.3
3558889.5
3559336.9
3559707.2
3560053
3560417.8
3560747.6
3561036.8
3561338.7
3561612.2
3561836.6
3562027.1
3562182.4
3562304.1
3562395.3
3562489.7
3562598.9
3562653.6
3562703
)
;

boundaryField
{
INLET
{
    type            cyclic;
}
OUTLET
{
    type            cyclic;
}
WALL
{
    type            fixedValue;
    value           uniform 0;
}
CENTER
{
    type            symmetryPlane;
}
frontAndBackPlanes
{
    type            empty;
}
}


// ************************************************************************* //

