/*--------------------------------*- C++ -*----------------------------------*\
| =========                 |                                                 |
| \\      /  F ield         | OpenFOAM: The Open Source CFD Toolbox           |
|  \\    /   O peration     | Version:  v1806                                 |
|   \\  /    A nd           | Web:      www.OpenFOAM.com                      |
|    \\/     M anipulation  |                                                 |
\*---------------------------------------------------------------------------*/
FoamFile
{
    version     2.0;
    format      ascii;
    class       volScalarField;
    location    0;
    object      Kj_imp;
}
// * * * * * * * * * * * * * * * * * * * * * * * * * * * * * * * * * * * * * //

dimensions      [0 0 0 0 0 0 0];


internalField   nonuniform List<scalar>
1025
(
98.817999
296.78093
495.53815
695.08857
895.43758
1096.5902
1298.5533
1501.3257
1704.9185
1909.3319
2114.5625
2320.6211
2527.5015
2735.2218
2943.7901
3153.1948
3363.4477
3574.5517
3786.4872
3999.2615
4212.8608
4427.3078
4642.6081
4858.7935
5075.875
5293.8325
5512.6204
5732.2579
5952.7777
6174.134
6396.3877
6619.4798
6843.4832
7068.4396
7294.2605
7521.0188
7748.7146
7977.3535
8206.9389
8437.4449
8668.8702
8901.2728
9134.6173
9368.9149
9604.1144
9840.225
10077.244
10315.129
10553.974
10793.83
11034.593
11276.312
11519.041
11762.814
12007.63
12253.541
12500.487
12748.354
12997.237
13247.198
13498.179
13750.238
14003.214
14257.143
14512.197
14768.223
15025.309
15283.34
15542.337
15802.391
16063.381
16325.474
16588.671
16852.867
17118.191
17384.67
17652.111
17920.62
18190.11
18460.607
18732.284
19005.076
19278.92
19553.813
19829.903
20107.1
20385.56
20665.049
20945.657
21227.415
21510.157
21794.047
22079.218
22365.335
22652.734
22941.247
23231.004
23521.806
23813.697
24106.94
24401.494
24697.214
24994.034
25291.836
25591.001
25891.209
26192.43
26494.683
26798.178
27103.035
27409.353
27716.754
28025.517
28335.717
28647.015
28959.807
29274.096
29589.553
29906.083
30223.739
30542.807
30863.134
31184.718
31507.862
31832.406
32158.287
32485.355
32813.886
33143.799
33475.002
33807.468
34141.243
34476.347
34812.683
35150.319
35489.271
35829.531
36171.12
36514.034
36858.27
37203.827
37550.644
37898.823
38248.335
38599.202
38951.42
39304.988
39659.925
40016.251
40374.029
40733.168
41093.71
41455.653
41818.995
42183.731
42549.859
42917.399
43286.249
43656.429
44028.033
44401.161
44775.752
45151.773
45529.188
45908.037
46288.341
46670.074
47053.366
47438.238
47824.46
48212.12
48601.556
48992.565
49384.799
49778.478
50173.826
50570.615
50968.967
51368.977
51770.418
52173.283
52577.437
52983.234
53390.67
53799.517
54209.994
54622.099
55035.602
55450.496
55866.988
56285.278
56704.915
57126.119
57548.733
57972.751
58398.322
58825.442
59254.105
59684.309
60116.269
60549.538
60984.335
61420.874
61859.323
62299.285
62740.931
63184.301
63629.171
64075.758
64524.052
64973.831
65425.311
65878.457
66333.293
66790.032
67248.417
67708.201
68169.802
68633.217
69098.234
69565.066
70033.278
70502.865
70974.03
71446.771
71921.298
72397.386
72875.031
73354.442
73835.612
74318.318
74802.56
75288.757
75776.686
76266.129
76757.085
77250.004
77745.096
78241.89
78740.125
79240.052
79741.621
80244.742
80749.609
81256.046
81764.056
82273.845
82785.196
83298.304
83812.96
84329.364
84847.503
85366.869
85887.955
86410.957
86935.67
87461.875
87989.765
88519.021
89049.631
89581.903
90116.033
90652.013
91189.632
91728.883
92269.751
92812.368
93356.576
93902.109
94449.25
94998.055
95548.52
96100.994
96654.912
97210.46
97767.824
98326.795
98887.368
99449.735
100013.68
100579.19
101146.86
101716.66
102288.01
102860.89
103435.49
104011.38
104588.97
105168.26
105749.21
106331.38
106914.46
107498.57
108084.09
108671.08
109259.54
109849.64
110441.18
111034.34
111629.1
112225.27
112823.02
113422.33
114023.19
114625.12
115228.58
115833.55
116440.02
117048.17
117657.79
118268.88
118882.12
119496.99
120112.76
120729.84
121347.62
121965.82
122585.31
123206.17
123828.39
124452.52
125078.53
125706.05
126334.87
126964.98
127596.54
128229.55
128863.82
129499.51
130136.76
130775.2
131415.02
132056.37
132698.88
133342.69
133987.37
134632.89
135278.21
135923.01
136567.84
137214.19
137861.73
138510.43
139159.66
139809.39
140460.26
141112.41
141765.66
142420.65
143076.89
143734.33
144392.98
145052.65
145713.49
146374.76
147037.17
147701.56
148367.04
149032.84
149697.99
150360.86
151022.31
151683.85
152346.36
153009.82
153674.23
154339.55
155006.55
155675.34
156345.02
157015.55
157687.07
158360.36
159035.4
159712.03
160390.38
161070.44
161752.22
162435.03
163118.58
163800.26
164477.64
165153.21
165829.55
166506.52
167183.39
167861.09
168539.51
169218.62
169898.36
170578.74
171259.89
171941.76
172623.47
173305.02
173987.25
174670.12
175353.6
176036.8
176719.83
177400.42
178074.54
178744.01
179413.53
180083.6
180754.19
181425.25
182096.77
182768.9
183440.66
184112.81
184785.47
185458.64
186132.32
186806.61
187481.35
188156.51
188832.08
189509.18
190185.56
190855.19
191517.59
192178.6
192840.11
193501.86
194164.06
194826.69
195488.6
196151.04
196814.89
197480.02
198145.5
198811.4
199477.66
200144.34
200811.32
201478.68
202146.37
202809.54
203461.99
204107.09
204751.19
205395.55
206041.32
206687.5
207333.88
207979.44
208625.38
209272.67
209921.39
210570.41
211219.74
211869.33
212519.15
213169.33
213820.85
214466.66
215099.4
215723.61
216346.57
216969.82
217593.38
218217.16
218842.47
219469.18
220096.03
220723.2
221350.64
221978.37
222606.42
223234.63
223861.94
224488.43
225111.18
225721.75
226319.73
226913.56
227507.75
228103.39
228699.27
229294.26
229889.6
230486.36
231084.58
231684.32
232285.54
232886.94
233487.41
234088.17
234689.24
235283.59
235860.64
236426.76
236989.96
237552.28
238114.96
238676.82
239239
239801.47
240364.31
240927.5
241490.95
242054.78
242618.84
243183.22
243749.14
244309.16
244853.59
245384.16
245911.74
246439.78
246968.14
247495.72
248023.64
248553.14
249084.26
249615.71
250147.48
250679.64
251213.4
251748.67
252283.4
252807.86
253314.95
253813.31
254312.18
254811.52
255310.09
255809.09
256309.77
256812.06
257314.74
257817.78
258321.26
258825.29
259329.73
259834.11
260328.67
260804.22
261270.69
261737.65
262206.28
262676.58
263147.35
263617.47
264086.93
264556.86
265027.36
265498.32
265970.83
266445.09
266915.03
267370.96
267813.8
268252.22
268691.26
269131.49
269573.39
270016.34
270459.87
270903.57
271347.79
271792.88
272239.64
272688.08
273133.22
273565.1
273982.73
274395.44
274808.25
275221.57
275635.76
276050.81
276466.36
276881.33
277296.74
277713.62
278131.31
278549.83
278963
279360.53
279747.61
280133.27
280519.4
280905.93
281293.16
281681.08
282069.73
282459.16
282849
283239.18
283630.36
284017.62
284393.04
284756.66
285116.9
285477.8
285839.42
286201.34
286563.9
286927.44
287292.58
287658.28
288023.54
288389.44
288750.5
289098.25
289436.37
289772.85
290109.83
290447.55
290785.87
291123.71
291462.33
291801.51
292141.26
292483.04
292823.27
293154.44
293473.57
293788.05
294102.97
294418.38
294733.8
295049.89
295367.43
295686.66
296006.54
296326.82
296646.49
296959.84
297262.35
297559.63
297857.49
298156.26
298455.66
298756.57
299059.1
299362.24
299666.16
299970.74
300273.1
300566.71
300851.06
301132.62
301414
301695.04
301976.8
302259.24
302542.03
302825.49
303109.66
303394.42
303672.9
303939.62
304200.64
304462.29
304724.53
304987.37
305250.7
305515.56
305782.1
306049.23
306316.97
306580.47
306834.45
307083.46
307333.68
307584.43
307835.7
308087.71
308339.46
308591.71
308844.59
309097.65
309345.87
309585.82
309822.26
310059.13
310296.5
310534.56
310773.38
311012.78
311252.67
311493.21
311731.79
311964.02
312191.65
312418.14
312645.3
312872.98
313101.2
313330.01
313559.39
313789.4
314017.89
314241.65
314459.47
314675.33
314891.77
315108.69
315326.91
315546.75
315768.12
315989.95
316211.15
316428.2
316639.83
316849.6
317059.96
317270.91
317482.44
317694.49
317906.18
318117.66
318327.92
318533.58
318734.34
318934.2
319135.5
319338.3
319541.65
319745.5
319949.89
320154.71
320357.74
320555.58
320751.28
320947.58
321144.43
321341.77
321539.61
321738.94
321938.89
322137.23
322331.14
322522.42
322713.79
322904.78
323096.37
323288.47
323481.13
323675.26
323868.11
324057.17
324243.66
324430.07
324617.02
324804.63
324993.61
325183.9
325374.85
325564.32
325750
325933.74
326117.83
326302.47
326487.65
326673.4
326859.73
327046.05
327230.27
327411.49
327591.72
327771.54
327951.94
328132.96
328314.53
328496.65
328678.62
328858.55
329036.74
329215.16
329393.23
329570.9
329749.17
329928
330106.42
330283.63
330458.74
330633.55
330809.03
330984.17
331159.82
331336.92
331513.57
331688.62
331862.19
332034.96
332208.06
332382.02
332556.79
332731.87
332905.28
333077.41
333248.22
333419.22
333590.55
333761.76
333933.79
334106.67
334279.74
334450.5
334620.52
334790.83
334961.48
335132.41
335303.64
335475.73
335647.53
335818
335988.77
336160.42
336331.85
336504.11
336677.23
336848.07
337016.15
337183.99
337352.67
337521.66
337690.41
337859.49
338028.89
338197.02
338363.91
338531.11
338698.63
338866.45
339035.07
339204.54
339373.89
339542
339709.87
339878.6
340047.64
340217.49
340387.67
340554.98
340721.11
340887.53
341054.73
341222.28
341390.12
341557.75
341724.16
341888.75
342053.12
342218.28
342384.74
342551.47
342717.03
342880.91
343044.56
343209.01
343374.25
343539.79
343705.13
343869.78
344033.23
344196.5
344360.57
344525.4
344691.03
344855.97
345019.26
345182.36
345345.75
345509.44
345673.9
345838.19
346001.31
346164.24
346327.47
346490.52
346654.34
346818.93
346982.38
347144.68
347307.29
347468.81
347630.61
347794.1
347956.46
348116.26
348276.37
348437.24
348598.84
348761.72
348923.47
349084.58
349245.51
349406.72
349568.71
349730.54
349891.25
350051.3
350210.14
350368.21
350524.99
350681.13
350837.73
350993.67
351149.42
351305.47
351462.23
351618.82
351773.86
351928.26
352083.39
352238.8
352394.04
352548.19
352701.25
352854.61
353008.68
353163.03
353316.31
353470.25
353624.04
353777.66
353932.03
354086.7
354239.42
354391.07
354543.46
354696.17
354846.87
354996.5
355145.09
355293.52
355442.21
355589.28
355735.29
355880.25
356025.03
356167.67
356310.12
356451.93
356594.73
356736.93
356879.37
357021.64
357162.46
357302.23
357441.83
357579.12
357716.21
357854.44
357993.38
358134.35
358277.87
358420.4
358561.04
358700.68
358837.93
358975.49
359112.5
359247.2
359380.87
359512.48
359643.95
359776.38
359906.51
360036.08
360165.96
360295.27
360422.29
360544.52
360666.98
360790.16
360911.47
361029.63
361146.79
361264.63
361381.45
361495.14
361606.97
361716.3
361822.22
361925.44
362026
362125.85
362228.69
362329.66
362427.11
362522.68
362621.35
362718.58
362812.27
362901.11
362986.62
363067.12
363140.77
363212.1
363283.21
363352.29
363417.27
363483.03
363548.23
363611.41
363670.77
363727.41
363783.04
363836.24
363884.92
363930.87
363979.47
364025.23
364063.09
364098.47
364135.78
364169.5
364199.08
364229.96
364257.93
364280.89
364300.36
364316.25
364328.7
364338.02
364347.68
364358.84
364364.43
364369.49
)
;

boundaryField
{
INLET
{
    type            cyclic;
}
OUTLET
{
    type            cyclic;
}
WALL
{
    type            fixedValue;
    value           uniform 0;
}
CENTER
{
    type            symmetryPlane;
}
frontAndBackPlanes
{
    type            empty;
}
}


// ************************************************************************* //

