/*--------------------------------*- C++ -*----------------------------------*\
| =========                 |                                                 |
| \\      /  F ield         | OpenFOAM: The Open Source CFD Toolbox           |
|  \\    /   O peration     | Version:  v1806                                 |
|   \\  /    A nd           | Web:      www.OpenFOAM.com                      |
|    \\/     M anipulation  |                                                 |
\*---------------------------------------------------------------------------*/
FoamFile
{
    version     2.0;
    format      ascii;
    class       volScalarField;
    location    0;
    object      Kj_new;
}
// * * * * * * * * * * * * * * * * * * * * * * * * * * * * * * * * * * * * * //

dimensions      [0 0 0 0 0 0 0];


internalField   nonuniform List<scalar>
1025
(
0.0030278538
0.0090938786
0.015184544
0.021299818
0.027439869
0.033604854
0.039794981
0.046010223
0.052250395
0.058516097
0.064807292
0.071124331
0.077467043
0.083835099
0.090228679
0.09664843
0.10309358
0.1095643
0.11606135
0.12258499
0.129135
0.1357121
0.14231653
0.14894775
0.15560606
0.1622912
0.16900214
0.1757397
0.18250532
0.18929811
0.19611806
0.20296634
0.20984293
0.21674671
0.22367822
0.2306371
0.23762393
0.24463941
0.25168431
0.25875847
0.26586224
0.27299532
0.28015842
0.28734965
0.29456894
0.30181818
0.30909528
0.31640064
0.32373454
0.33109632
0.33848955
0.34591298
0.35336493
0.36084881
0.36836207
0.37590826
0.38348232
0.39108888
0.39872816
0.40639862
0.414102
0.4218395
0.42960558
0.43740077
0.44522441
0.45307902
0.46096726
0.46888565
0.47683414
0.48481482
0.49282392
0.50086659
0.50894283
0.5170494
0.52519028
0.53336625
0.54157888
0.54982225
0.55810232
0.56641913
0.57476819
0.58314647
0.5915604
0.60001286
0.60849681
0.61701837
0.62557224
0.63416243
0.6427918
0.65146147
0.66016637
0.66890057
0.67766915
0.68647317
0.69531023
0.70418693
0.71309528
0.72204005
0.73102146
0.74003359
0.74908667
0.75817488
0.76729485
0.77645522
0.78565119
0.79488552
0.80415598
0.81346183
0.82281107
0.8321895
0.84160754
0.85106443
0.86056563
0.8701087
0.87969292
0.88930911
0.89896881
0.90867209
0.91840929
0.92819259
0.93802386
0.9478912
0.95780557
0.96776702
0.97776116
0.98779744
0.99788097
1.0080106
1.0181736
1.0283794
1.0386251
1.0489121
1.059241
1.0696111
1.0800222
1.0904751
1.1009696
1.1115064
1.1220855
1.1327067
1.1433701
1.1540761
1.1648256
1.1756177
1.186453
1.1973314
1.2082504
1.2192131
1.2302201
1.2412708
1.2523649
1.2635039
1.2746876
1.2859161
1.2971863
1.308501
1.3198608
1.3312688
1.3427225
1.3542219
1.3657669
1.3773588
1.3889968
1.4006801
1.4124101
1.4241874
1.4360113
1.4478822
1.4597974
1.4717568
1.483763
1.4958266
1.5079375
1.5200888
1.5322873
1.54454
1.5568398
1.5691865
1.5815831
1.5940266
1.6065209
1.6190659
1.6316687
1.6443249
1.6570233
1.6697749
1.6825754
1.695422
1.7083191
1.7212691
1.7342789
1.7473298
1.7604333
1.7735894
1.7867978
1.8000537
1.8133618
1.826722
1.8401342
1.8536052
1.8671212
1.8806889
1.8943152
1.9079998
1.9217414
1.9355343
1.9493797
1.9632763
1.9772308
1.991243
2.0053062
2.0194269
2.0335983
2.0478331
2.062132
2.0764751
2.0908622
2.105313
2.1198206
2.1343849
2.1490192
2.1637033
2.1784437
2.1932473
2.208107
2.2230296
2.2380012
2.2530286
2.2681184
2.2832707
2.2984784
2.3137416
2.3290659
2.3444521
2.3599011
2.3754051
2.3909706
2.4066122
2.4223152
2.4380794
2.4539048
2.4697911
2.4857383
2.501753
2.5178369
2.5339902
2.5502105
2.5664913
2.5828389
2.5992466
2.6157209
2.6322618
2.6488719
2.6655578
2.6823261
2.6991606
2.7160545
2.7330141
2.7500295
2.7671002
2.7842259
2.8014131
2.8186718
2.8360061
2.8534159
2.8708904
2.888425
2.9060195
2.9236782
2.9414075
2.9591958
2.9770543
2.994983
3.0129752
3.0310372
3.0491755
3.0673833
3.0856605
3.1040134
3.1224356
3.1409266
3.159493
3.1781346
3.1968447
3.2156098
3.2344497
3.253364
3.2723527
3.2914295
3.3105803
3.3297908
3.3490752
3.3684475
3.3878997
3.4074104
3.4269793
3.4466274
3.4663482
3.486148
3.5060265
3.5259614
3.5459748
3.5660664
3.5862359
3.6064669
3.6267755
3.6471784
3.6676585
3.6882223
3.7088629
3.729563
3.7503283
3.7711584
3.7920466
3.813017
3.8340878
3.855234
3.8764682
3.8977839
3.9191809
3.9406396
3.9621793
3.9838059
4.0055129
4.0272801
4.0491132
4.0710324
4.0930519
4.1151781
4.1373959
4.159693
4.1820755
4.204549
4.2271012
4.2497382
4.2724656
4.2952836
4.3181855
4.3411775
4.3642592
4.3874245
4.4107031
4.4340709
4.4575279
4.4810738
4.5047084
4.5284375
4.5522804
4.5762114
4.6002365
4.6243554
4.648568
4.6728947
4.6973146
4.7218277
4.7464062
4.7710833
4.7958528
4.820686
4.8456112
4.8706338
4.8957539
4.920965
4.946273
4.9716778
4.9972092
5.0228677
5.0486533
5.0745723
5.1005873
5.1266663
5.1528469
5.1791287
5.2055114
5.2319888
5.2585332
5.2851778
5.3119222
5.3387721
5.3657214
5.3927698
5.4199229
5.4471805
5.4745423
5.5020024
5.5296031
5.5573506
5.5852015
5.6131558
5.6412516
5.6694501
5.6977573
5.7261728
5.7546964
5.7833278
5.8120666
5.8409126
5.8698657
5.8989253
5.9280974
5.957424
5.9868997
6.016487
6.0461859
6.075996
6.1059172
6.135949
6.1660911
6.196349
6.2267226
6.2572057
6.2878038
6.3185164
6.3492951
6.3801936
6.4112055
6.4423307
6.4735186
6.5048248
6.5362487
6.5677901
6.5994487
6.6312242
6.6631752
6.6952369
6.7274205
6.7597255
6.7921461
6.8246932
6.857361
6.8902001
6.9231593
6.9562439
6.9894538
7.0227883
7.0562417
7.0898191
7.1235205
7.1573453
7.1912986
7.2253749
7.259579
7.2939053
7.328423
7.3630733
7.397845
7.432677
7.4676408
7.5027298
7.5378815
7.5731634
7.6085748
7.6441156
7.6798557
7.7157299
7.7517327
7.7878633
7.8241272
7.8605295
7.8971387
7.9338802
7.9707537
8.0077586
8.0449059
8.0821892
8.1196029
8.1571519
8.1947556
8.2324993
8.270382
8.3083156
8.3463957
8.3845936
8.4229372
8.4613918
8.4999653
8.5386887
8.5775879
8.6166276
8.6558252
8.6951534
8.7346445
8.7742927
8.8140661
8.8540351
8.8941187
8.9343107
8.9746498
9.0151162
9.0557582
9.0964964
9.1373644
9.1784026
9.2195698
9.2608601
9.3022884
9.3438225
9.3854509
9.4271829
9.4690659
9.5110559
9.5531575
9.5953912
9.6377735
9.6803038
9.7229755
9.7657648
9.808694
9.8517222
9.8949057
9.938244
9.9816954
10.025313
10.069083
10.112969
10.156974
10.201123
10.245372
10.289802
10.334404
10.37916
10.424056
10.469062
10.514252
10.559634
10.605205
10.650882
10.696672
10.742608
10.788721
10.834935
10.881336
10.927956
10.974753
11.021716
11.068884
11.116257
11.163845
11.211675
11.25959
11.307701
11.355994
11.404454
11.453001
11.501718
11.550648
11.599776
11.649077
11.698513
11.7482
11.797996
11.847858
11.897916
11.948118
11.998517
12.04911
12.099814
12.150731
12.201798
12.253114
12.304482
12.356117
12.407992
12.459962
12.512027
12.564262
12.61658
12.669014
12.721704
12.774614
12.827793
12.881206
12.934874
12.988666
13.042665
13.096784
13.151002
13.205516
13.260238
13.315077
13.370009
13.425102
13.480444
13.535898
13.591463
13.647322
13.703312
13.759551
13.815988
13.872675
13.929563
13.986744
14.044197
14.101925
14.159825
14.217843
14.276133
14.334591
14.3933
14.452307
14.511658
14.571254
14.63096
14.690747
14.750667
14.810764
14.871075
14.931656
14.992479
15.053428
15.114518
15.175849
15.237271
15.298799
15.360595
15.422659
15.485021
15.547405
15.6099
15.672614
15.735544
15.798614
15.861822
15.925287
15.988965
16.052776
16.116765
16.180928
16.245255
16.309824
16.374641
16.439663
16.50488
16.570335
16.636035
16.701936
16.768036
16.834297
16.900719
16.967379
17.034235
17.101245
17.168449
17.235843
17.30347
17.371289
17.439256
17.507451
17.575874
17.644439
17.713187
17.782118
17.851229
17.920561
17.990113
18.059883
18.12987
18.200073
18.27049
18.341079
18.41188
18.482979
18.554287
18.625803
18.697526
18.769455
18.841588
18.913965
18.986544
19.059323
19.132342
19.205559
19.278972
19.35262
19.426553
19.500678
19.574984
19.649519
19.724242
19.799204
19.874392
19.949844
20.025519
20.101374
20.177449
20.253743
20.330196
20.406865
20.483747
20.56088
20.638281
20.71589
20.793648
20.871612
20.949818
21.028266
21.106853
21.185578
21.264477
21.34361
21.422936
21.502453
21.582238
21.662249
21.742448
21.822869
21.903512
21.984375
22.065456
22.146753
22.228265
22.30999
22.391994
22.474279
22.556809
22.639654
22.722775
22.806171
22.889769
22.973604
23.057674
23.141903
23.226325
23.311015
23.396046
23.481302
23.566745
23.652409
23.73833
23.824468
23.910785
23.997315
24.084093
24.17108
24.25831
24.345745
24.433383
24.521257
24.60933
24.697549
24.785961
24.8746
24.963465
25.052553
25.14186
25.23126
25.320875
25.410703
25.500777
25.591059
25.681513
25.772206
25.863231
25.954455
26.045779
26.137331
26.229074
26.321007
26.413094
26.505296
26.597679
26.690345
26.783327
26.87655
26.969872
27.063289
27.156905
27.250718
27.344759
27.438991
27.533411
27.627904
27.722614
27.817651
27.912865
28.008287
28.103915
28.199743
28.295652
28.391603
28.487746
28.584111
28.680661
28.777395
28.874341
28.971337
29.068508
29.16588
29.26342
29.361156
29.459085
29.557172
29.655445
29.753932
29.852599
29.951411
30.050535
30.149861
30.249353
30.34901
30.448857
30.548862
30.649051
30.74942
30.849936
30.950625
31.051455
31.1523
31.253337
31.354532
31.455726
31.556916
31.658281
31.759788
31.861433
31.963242
32.065211
32.167336
32.269584
32.37198
32.474687
32.577507
32.680492
32.783638
32.886885
32.990257
33.093777
33.197441
33.301245
33.405158
33.509174
33.613345
33.717455
33.821655
33.926183
34.031008
34.136128
34.24135
34.346671
34.452137
34.557693
34.663135
34.76851
34.873984
34.979527
35.085159
35.190901
35.296517
35.402207
35.507965
35.613788
35.71972
35.825732
35.931792
36.03792
36.144113
36.250363
36.356667
36.463017
36.56941
36.675865
36.782374
36.88891
36.995722
37.102575
37.209461
37.316376
37.423553
37.530748
37.638199
37.745926
37.853655
37.961403
38.069416
38.177437
38.285204
38.392943
38.500669
38.608661
38.716652
38.824612
38.932535
39.040437
39.148311
39.256401
39.364748
39.473048
39.581274
39.689461
39.797602
39.90569
40.013696
40.121614
40.229455
40.337236
40.445223
40.55339
40.661475
40.769471
40.877347
40.985118
41.093085
41.20091
41.308292
41.415555
41.522672
41.629632
41.736125
41.842444
41.948928
42.055241
42.161041
42.266652
42.372401
42.477963
42.582966
42.687742
42.792301
42.896633
43.00108
43.105638
43.209943
43.314002
43.417806
43.521327
43.624554
43.727512
43.8298
43.931762
44.033041
44.133989
44.234978
44.335646
44.435968
44.535914
44.63549
44.735099
44.834315
44.932725
45.030733
45.128328
45.225894
45.323437
45.420549
45.5172
45.613394
45.709117
45.804341
45.899068
45.993285
46.086977
46.180132
46.273192
46.365701
46.457631
46.548531
46.638379
46.727627
46.816261
46.904239
46.991571
47.078302
47.164202
47.249217
47.333535
47.41698
47.499634
47.581402
47.662158
47.742068
47.821185
47.899533
47.976891
48.053209
48.128662
48.203333
48.277154
48.35
48.421863
48.492713
48.562431
48.631326
48.699101
48.765626
48.831158
48.895677
48.959043
49.021241
49.08209
49.142068
49.201148
49.25892
49.315645
49.371185
49.425408
49.478455
49.529953
49.580115
49.629098
49.676693
49.723052
49.768156
49.811677
49.853645
49.89391
49.93287
49.970502
50.006283
50.040178
50.072155
50.102178
50.130788
50.157891
50.183517
50.207123
50.228544
50.248069
50.265723
50.281672
50.295417
50.307117
50.316468
50.323695
50.328488
50.330737
)
;

boundaryField
{
INLET
{
    type            cyclic;
}
OUTLET
{
    type            cyclic;
}
WALL
{
    type            fixedValue;
    value           uniform 0;
}
CENTER
{
    type            symmetryPlane;
}
frontAndBackPlanes
{
    type            empty;
}
}


// ************************************************************************* //

