/*--------------------------------*- C++ -*----------------------------------*\
| =========                 |                                                 |
| \\      /  F ield         | OpenFOAM: The Open Source CFD Toolbox           |
|  \\    /   O peration     | Version:  v1806                                 |
|   \\  /    A nd           | Web:      www.OpenFOAM.com                      |
|    \\/     M anipulation  |                                                 |
\*---------------------------------------------------------------------------*/
FoamFile
{
    version     2.0;
    format      ascii;
    class       volScalarField;
    location    "10000";
    object      nut;
}
// * * * * * * * * * * * * * * * * * * * * * * * * * * * * * * * * * * * * * //

dimensions      [0 2 -1 0 0 0 0];


internalField   nonuniform List<scalar> 
1025
(
2.09979e-14
1.04727e-12
5.45947e-12
1.5819e-11
3.47681e-11
6.50329e-11
1.09426e-10
1.70851e-10
2.52301e-10
3.56867e-10
4.87741e-10
6.48218e-10
8.41693e-10
1.07168e-09
1.3418e-09
1.6558e-09
2.01753e-09
2.431e-09
2.90033e-09
3.42978e-09
4.02374e-09
4.68675e-09
5.42353e-09
6.23893e-09
7.13797e-09
8.12585e-09
9.20788e-09
1.03896e-08
1.16769e-08
1.30754e-08
1.45916e-08
1.62316e-08
1.8002e-08
1.99098e-08
2.19619e-08
2.41654e-08
2.65279e-08
2.90572e-08
3.17618e-08
3.46497e-08
3.77295e-08
4.10103e-08
4.45016e-08
4.82129e-08
5.21541e-08
5.63359e-08
6.0769e-08
6.54642e-08
7.04332e-08
7.56885e-08
8.12427e-08
8.71081e-08
9.32984e-08
9.98277e-08
1.0671e-07
1.13963e-07
1.216e-07
1.29637e-07
1.38092e-07
1.46983e-07
1.56328e-07
1.66147e-07
1.7646e-07
1.87286e-07
1.98649e-07
2.10571e-07
2.23075e-07
2.36186e-07
2.49931e-07
2.64335e-07
2.79428e-07
2.95238e-07
3.11795e-07
3.29133e-07
3.47284e-07
3.66283e-07
3.86168e-07
4.06976e-07
4.28749e-07
4.51527e-07
4.75353e-07
5.00276e-07
5.26343e-07
5.53604e-07
5.82115e-07
6.11927e-07
6.43101e-07
6.75698e-07
7.09785e-07
7.45427e-07
7.82694e-07
8.2166e-07
8.62408e-07
9.05018e-07
9.49578e-07
9.96181e-07
1.04492e-06
1.09589e-06
1.14921e-06
1.20498e-06
1.26333e-06
1.32438e-06
1.38826e-06
1.45511e-06
1.52508e-06
1.59831e-06
1.67498e-06
1.75526e-06
1.83933e-06
1.92737e-06
2.0196e-06
2.11622e-06
2.21748e-06
2.3236e-06
2.43484e-06
2.55148e-06
2.67379e-06
2.80208e-06
2.93667e-06
3.0779e-06
3.22613e-06
3.38173e-06
3.54512e-06
3.71672e-06
3.89697e-06
4.08637e-06
4.2854e-06
4.49461e-06
4.71458e-06
4.94591e-06
5.1892e-06
5.44516e-06
5.71453e-06
5.99802e-06
6.29644e-06
6.61065e-06
6.94153e-06
7.29005e-06
7.65719e-06
8.04402e-06
8.45163e-06
8.88122e-06
9.33406e-06
9.81141e-06
1.03147e-05
1.08453e-05
1.14048e-05
1.19948e-05
1.2617e-05
1.32732e-05
1.39651e-05
1.46948e-05
1.54642e-05
1.62756e-05
1.71311e-05
1.8033e-05
1.89836e-05
1.99855e-05
2.10413e-05
2.21537e-05
2.33252e-05
2.4559e-05
2.58579e-05
2.72246e-05
2.86625e-05
3.01746e-05
3.17642e-05
3.34344e-05
3.51888e-05
3.703e-05
3.89617e-05
4.09892e-05
4.31142e-05
4.53387e-05
4.76675e-05
5.01051e-05
5.26536e-05
5.53163e-05
5.8098e-05
6.10004e-05
6.40266e-05
6.71797e-05
7.04646e-05
7.38845e-05
7.74403e-05
8.11369e-05
8.49774e-05
8.89625e-05
9.30946e-05
9.73789e-05
0.00010182
0.000106417
0.000111174
0.000116093
0.000121178
0.00012643
0.000131854
0.00013745
0.000143222
0.000149175
0.000155306
0.00016162
0.000168124
0.000174819
0.000181706
0.000188787
0.000196069
0.000203551
0.000211239
0.000219136
0.000227242
0.000235562
0.000244097
0.000252854
0.000261839
0.000271047
0.000280481
0.000290153
0.000300061
0.000310209
0.000320604
0.00033124
0.000342124
0.000353264
0.000364657
0.000376312
0.000388226
0.000400401
0.000412845
0.00042556
0.000438542
0.000451794
0.000465329
0.000479142
0.000493229
0.000507591
0.000522234
0.000537167
0.000552383
0.000567883
0.000583666
0.000599733
0.000616084
0.000632724
0.000649646
0.000666848
0.000684338
0.000702105
0.000720156
0.000738481
0.000757086
0.000775968
0.000795117
0.000814539
0.000834237
0.000854202
0.000874422
0.000894901
0.000915637
0.000936624
0.000957861
0.00097935
0.00100109
0.00102306
0.00104527
0.00106771
0.00109037
0.00111327
0.00113638
0.00115971
0.00118326
0.00120701
0.00123098
0.00125513
0.00127948
0.00130404
0.00132878
0.00135371
0.00137882
0.00140411
0.00142957
0.00145521
0.00148102
0.00150699
0.00153311
0.0015594
0.00158584
0.00161243
0.00163917
0.00166605
0.00169308
0.00172024
0.00174754
0.00177498
0.00180254
0.00183023
0.00185805
0.00188599
0.00191405
0.00194223
0.00197052
0.00199892
0.00202744
0.00205607
0.0020848
0.00211363
0.00214257
0.00217161
0.00220075
0.00222999
0.00225932
0.00228875
0.00231827
0.00234788
0.00237758
0.00240738
0.00243725
0.00246721
0.00249726
0.0025274
0.00255761
0.0025879
0.00261828
0.00264873
0.00267926
0.00270987
0.00274056
0.00277131
0.00280215
0.00283306
0.00286404
0.00289509
0.00292623
0.00295742
0.00298868
0.00302001
0.00305142
0.00308289
0.00311443
0.00314605
0.00317772
0.00320946
0.00324126
0.00327314
0.00330507
0.00333707
0.00336914
0.00340127
0.00343346
0.00346572
0.00349804
0.00353043
0.00356287
0.00359537
0.00362794
0.00366057
0.00369327
0.00372603
0.00375884
0.00379172
0.00382465
0.00385765
0.00389071
0.00392383
0.00395701
0.00399025
0.00402355
0.0040569
0.00409033
0.00412381
0.00415734
0.00419094
0.00422461
0.00425833
0.00429211
0.00432594
0.00435984
0.00439379
0.00442781
0.00446189
0.00449602
0.00453022
0.00456448
0.0045988
0.00463317
0.00466761
0.00470211
0.00473667
0.00477128
0.00480596
0.00484069
0.00487548
0.00491034
0.00494526
0.00498024
0.00501528
0.00505038
0.00508553
0.00512075
0.00515603
0.00519138
0.00522678
0.00526224
0.00529777
0.00533335
0.005369
0.00540471
0.00544048
0.00547631
0.0055122
0.00554816
0.00558417
0.00562025
0.00565639
0.0056926
0.00572887
0.0057652
0.00580159
0.00583804
0.00587456
0.00591114
0.00594778
0.00598449
0.00602127
0.0060581
0.00609499
0.00613196
0.00616898
0.00620607
0.00624323
0.00628044
0.00631772
0.00635506
0.00639247
0.00642995
0.00646749
0.00650509
0.00654276
0.00658049
0.0066183
0.00665616
0.00669409
0.00673209
0.00677015
0.00680828
0.00684647
0.00688473
0.00692306
0.00696144
0.0069999
0.00703843
0.00707702
0.00711567
0.0071544
0.00719319
0.00723204
0.00727096
0.00730995
0.00734901
0.00738814
0.00742733
0.00746659
0.00750591
0.00754531
0.00758478
0.00762431
0.0076639
0.00770356
0.00774329
0.0077831
0.00782296
0.0078629
0.0079029
0.00794298
0.00798312
0.00802333
0.0080636
0.00810395
0.00814436
0.00818484
0.00822539
0.00826601
0.00830669
0.00834745
0.00838827
0.00842917
0.00847013
0.00851116
0.00855225
0.00859342
0.00863466
0.00867596
0.00871733
0.00875878
0.00880028
0.00884186
0.00888351
0.00892522
0.008967
0.00900886
0.00905078
0.00909277
0.00913482
0.00917695
0.00921914
0.00926141
0.00930374
0.00934614
0.00938861
0.00943114
0.00947375
0.00951642
0.00955916
0.00960198
0.00964486
0.00968781
0.00973083
0.00977392
0.00981707
0.00986029
0.00990358
0.00994694
0.00999036
0.0100339
0.0100774
0.010121
0.0101647
0.0102085
0.0102523
0.0102962
0.0103401
0.0103842
0.0104283
0.0104724
0.0105166
0.0105609
0.0106053
0.0106497
0.0106941
0.0107387
0.0107833
0.010828
0.0108727
0.0109175
0.0109624
0.0110073
0.0110523
0.0110973
0.0111425
0.0111876
0.0112329
0.0112782
0.0113235
0.011369
0.0114145
0.01146
0.0115056
0.0115513
0.011597
0.0116428
0.0116887
0.0117346
0.0117806
0.0118266
0.0118727
0.0119189
0.0119651
0.0120113
0.0120577
0.012104
0.0121504
0.0121969
0.0122435
0.0122902
0.0123368
0.0123835
0.0124303
0.0124771
0.012524
0.012571
0.0126179
0.012665
0.0127121
0.0127592
0.0128064
0.0128537
0.012901
0.0129484
0.0129958
0.0130433
0.0130907
0.0131383
0.0131859
0.0132336
0.0132813
0.0133291
0.0133769
0.0134247
0.0134726
0.0135205
0.0135685
0.0136165
0.0136646
0.0137127
0.0137609
0.0138091
0.0138574
0.0139057
0.013954
0.0140024
0.0140508
0.0140993
0.0141477
0.0141963
0.0142448
0.0142934
0.0143421
0.0143908
0.0144395
0.0144883
0.0145371
0.0145859
0.0146347
0.0146836
0.0147326
0.0147816
0.0148305
0.0148796
0.0149286
0.0149777
0.0150268
0.015076
0.0151251
0.0151743
0.0152235
0.0152728
0.0153221
0.0153714
0.0154207
0.0154701
0.0155195
0.0155688
0.0156182
0.0156677
0.0157171
0.0157666
0.0158161
0.0158656
0.0159152
0.0159647
0.0160142
0.0160638
0.0161134
0.016163
0.0162126
0.0162623
0.0163119
0.0163616
0.0164112
0.0164609
0.0165105
0.0165602
0.0166099
0.0166596
0.0167093
0.016759
0.0168087
0.0168584
0.0169082
0.0169579
0.0170076
0.0170573
0.017107
0.0171567
0.0172064
0.0172561
0.0173058
0.0173555
0.0174052
0.0174548
0.0175045
0.0175541
0.0176038
0.0176534
0.017703
0.0177526
0.0178022
0.0178518
0.0179013
0.0179509
0.0180004
0.0180499
0.0180994
0.0181488
0.0181983
0.0182477
0.0182971
0.0183465
0.0183958
0.0184451
0.0184944
0.0185436
0.0185929
0.0186421
0.0186912
0.0187404
0.0187895
0.0188385
0.0188875
0.0189365
0.0189855
0.0190344
0.0190832
0.019132
0.0191808
0.0192295
0.0192782
0.0193269
0.0193755
0.019424
0.0194725
0.019521
0.0195694
0.0196177
0.019666
0.0197142
0.0197624
0.0198105
0.0198586
0.0199066
0.0199545
0.0200024
0.0200502
0.0200979
0.0201456
0.0201933
0.0202408
0.0202883
0.0203357
0.020383
0.0204303
0.0204775
0.0205246
0.0205717
0.0206186
0.0206655
0.0207123
0.020759
0.0208057
0.0208522
0.0208987
0.0209451
0.0209914
0.0210376
0.0210837
0.0211298
0.0211757
0.0212215
0.0212673
0.0213129
0.0213585
0.021404
0.0214493
0.0214946
0.0215397
0.0215848
0.0216297
0.0216746
0.0217193
0.021764
0.0218085
0.0218529
0.0218972
0.0219414
0.0219854
0.0220294
0.0220732
0.022117
0.0221606
0.0222041
0.0222474
0.0222906
0.0223338
0.0223768
0.0224196
0.0224624
0.022505
0.0225475
0.0225898
0.022632
0.0226741
0.0227161
0.0227579
0.0227996
0.0228411
0.0228825
0.0229238
0.0229649
0.0230059
0.0230467
0.0230874
0.0231279
0.0231683
0.0232086
0.0232487
0.0232887
0.0233285
0.0233681
0.0234076
0.023447
0.0234862
0.0235252
0.0235641
0.0236028
0.0236414
0.0236798
0.0237181
0.0237562
0.0237941
0.0238319
0.0238695
0.023907
0.0239442
0.0239814
0.0240183
0.0240551
0.0240917
0.0241282
0.0241645
0.0242006
0.0242366
0.0242724
0.024308
0.0243434
0.0243787
0.0244138
0.0244488
0.0244835
0.0245181
0.0245525
0.0245868
0.0246209
0.0246548
0.0246885
0.0247221
0.0247555
0.0247887
0.0248218
0.0248547
0.0248874
0.0249199
0.0249523
0.0249845
0.0250165
0.0250484
0.0250801
0.0251116
0.0251429
0.0251741
0.0252052
0.025236
0.0252667
0.0252972
0.0253276
0.0253578
0.0253879
0.0254177
0.0254475
0.025477
0.0255065
0.0255357
0.0255648
0.0255938
0.0256226
0.0256513
0.0256798
0.0257082
0.0257364
0.0257645
0.0257924
0.0258203
0.0258479
0.0258755
0.0259029
0.0259302
0.0259574
0.0259845
0.0260114
0.0260382
0.0260649
0.0260915
0.026118
0.0261444
0.0261707
0.0261969
0.026223
0.026249
0.026275
0.0263008
0.0263266
0.0263523
0.026378
0.0264035
0.026429
0.0264545
0.0264799
0.0265052
0.0265306
0.0265558
0.0265811
0.0266063
0.0266315
0.0266567
0.0266818
0.026707
0.0267321
0.0267573
0.0267824
0.0268076
0.0268328
0.026858
0.0268833
0.0269086
0.0269339
0.0269593
0.0269847
0.0270102
0.0270358
0.0270614
0.0270871
0.0271129
0.0271388
0.0271647
0.0271908
0.027217
0.0272433
0.0272697
0.0272962
0.0273228
0.0273496
0.0273765
0.0274036
0.0274308
0.0274581
0.0274856
0.0275133
0.0275411
0.0275691
0.0275973
0.0276256
0.0276541
0.0276828
0.0277117
0.0277407
0.02777
0.0277994
0.027829
0.0278588
0.0278887
0.0279189
0.0279492
0.0279797
0.0280104
0.0280412
0.0280722
0.0281034
0.0281348
0.0281662
0.0281979
0.0282296
0.0282615
0.0282935
0.0283257
0.0283579
0.0283902
0.0284225
0.028455
0.0284875
0.0285199
0.0285524
0.0285849
0.0286174
0.0286498
0.0286822
0.0287145
0.0287466
0.0287786
0.0288104
0.0288421
0.0288735
0.0289047
0.0289356
0.0289662
0.0289965
0.0290264
0.0290558
0.0290849
0.0291135
0.0291415
0.029169
0.0291959
0.0292222
0.0292479
0.0292728
0.029297
0.0293204
0.0293429
0.0293646
0.0293854
0.0294053
0.0294242
0.029442
0.0294588
0.0294745
0.029489
0.0295024
0.0295145
0.0295254
0.029535
0.0295433
0.0295502
0.0295558
0.0295599
0.0295626
0.0295638
)
;

boundaryField
{
    INLET
    {
        type            cyclic;
    }
    OUTLET
    {
        type            cyclic;
    }
    CENTER
    {
        type            symmetryPlane;
    }
    WALL
    {
        type            fixedValue;
        value           uniform 0;
    }
    frontAndBackPlanes
    {
        type            empty;
    }
}


// ************************************************************************* //
