/*--------------------------------*- C++ -*----------------------------------*\
| =========                 |                                                 |
| \\      /  F ield         | OpenFOAM: The Open Source CFD Toolbox           |
|  \\    /   O peration     | Version:  v1806                                 |
|   \\  /    A nd           | Web:      www.OpenFOAM.com                      |
|    \\/     M anipulation  |                                                 |
\*---------------------------------------------------------------------------*/
FoamFile
{
    version     2.0;
    format      ascii;
    class       volScalarField;
    location    "10000";
    object      nutL_RANS;
}
// * * * * * * * * * * * * * * * * * * * * * * * * * * * * * * * * * * * * * //

dimensions      [0 2 -1 0 0 0 0];


internalField   nonuniform List<scalar> 
1025
(
1e-12
1e-12
4.03007e-12
7.78e-12
1.1549e-11
1.53831e-11
4.10267e-11
6.67949e-11
9.2684e-11
1.18691e-10
1.44817e-10
1.71055e-10
1.97404e-10
2.79406e-10
3.90871e-10
5.02796e-10
6.15168e-10
7.27967e-10
8.4119e-10
9.54829e-10
1.06886e-09
1.18328e-09
1.29806e-09
1.41324e-09
1.61973e-09
1.9888e-09
2.35912e-09
2.73055e-09
3.10319e-09
3.47693e-09
3.85119e-09
4.2273e-09
4.60391e-09
4.98124e-09
5.35985e-09
5.73853e-09
6.11855e-09
6.49977e-09
6.88152e-09
7.26393e-09
8.18776e-09
9.21304e-09
1.02399e-08
1.12683e-08
1.22995e-08
1.33329e-08
1.43667e-08
1.54013e-08
1.64384e-08
1.74772e-08
1.85173e-08
1.95578e-08
2.05998e-08
2.16438e-08
2.26885e-08
2.37328e-08
2.47785e-08
2.58261e-08
2.6874e-08
2.82328e-08
3.07189e-08
3.32086e-08
3.56993e-08
3.81894e-08
4.06815e-08
4.3177e-08
4.56724e-08
4.81697e-08
5.06691e-08
5.3168e-08
5.56659e-08
5.81668e-08
6.06633e-08
6.3163e-08
6.56672e-08
6.81665e-08
7.06671e-08
7.3171e-08
7.56676e-08
7.81669e-08
8.06677e-08
8.31637e-08
8.56631e-08
9.07217e-08
9.60741e-08
1.01429e-07
1.06793e-07
1.12143e-07
1.17487e-07
1.22844e-07
1.28197e-07
1.33541e-07
1.38884e-07
1.44224e-07
1.49573e-07
1.54917e-07
1.60249e-07
1.65588e-07
1.70919e-07
1.76247e-07
1.81575e-07
1.86902e-07
1.92223e-07
1.97536e-07
2.02874e-07
2.08187e-07
2.13496e-07
2.18817e-07
2.26262e-07
2.3668e-07
2.47113e-07
2.57523e-07
2.67914e-07
2.78326e-07
2.88728e-07
2.99131e-07
3.09542e-07
3.19921e-07
3.30319e-07
3.40725e-07
3.51135e-07
3.61532e-07
3.71937e-07
3.82347e-07
3.92744e-07
4.03176e-07
4.13599e-07
4.24039e-07
4.34487e-07
4.44917e-07
4.55399e-07
4.659e-07
4.76374e-07
4.86892e-07
4.97444e-07
5.14349e-07
5.33369e-07
5.52432e-07
5.71546e-07
5.90582e-07
6.09797e-07
6.29311e-07
6.48588e-07
6.67603e-07
6.86971e-07
7.0667e-07
7.26453e-07
7.46016e-07
7.65628e-07
7.85591e-07
8.05656e-07
8.25497e-07
8.45735e-07
8.66394e-07
8.86771e-07
9.07607e-07
9.28551e-07
9.49613e-07
9.7078e-07
9.92433e-07
1.01424e-06
1.03619e-06
1.06682e-06
1.10241e-06
1.13916e-06
1.17614e-06
1.21332e-06
1.25129e-06
1.28936e-06
1.32813e-06
1.36741e-06
1.40705e-06
1.44814e-06
1.48957e-06
1.53105e-06
1.57408e-06
1.61764e-06
1.66144e-06
1.70694e-06
1.75371e-06
1.8003e-06
1.84788e-06
1.8972e-06
1.94729e-06
1.99869e-06
2.05128e-06
2.10396e-06
2.1591e-06
2.21556e-06
2.28488e-06
2.36622e-06
2.44992e-06
2.53561e-06
2.62168e-06
2.71214e-06
2.80415e-06
2.89662e-06
2.99288e-06
3.09043e-06
3.19133e-06
3.29574e-06
3.40119e-06
3.50948e-06
3.62032e-06
3.73525e-06
3.85188e-06
3.9708e-06
4.09528e-06
4.22171e-06
4.34966e-06
4.48196e-06
4.61892e-06
4.75877e-06
4.90194e-06
5.04911e-06
5.19915e-06
5.38695e-06
5.58691e-06
5.79507e-06
6.00452e-06
6.21739e-06
6.44199e-06
6.66933e-06
6.90212e-06
7.14044e-06
7.38446e-06
7.63949e-06
7.89546e-06
8.15935e-06
8.43173e-06
8.70478e-06
8.9924e-06
9.28499e-06
9.58055e-06
9.89055e-06
1.02007e-05
1.05176e-05
1.08475e-05
1.11832e-05
1.1527e-05
1.18793e-05
1.2234e-05
1.26579e-05
1.3115e-05
1.3574e-05
1.40397e-05
1.45245e-05
1.50213e-05
1.55224e-05
1.60353e-05
1.65641e-05
1.70931e-05
1.76341e-05
1.82052e-05
1.87694e-05
1.93498e-05
1.99437e-05
2.05317e-05
2.11569e-05
2.17842e-05
2.24167e-05
2.30676e-05
2.37143e-05
2.43843e-05
2.50687e-05
2.57571e-05
2.64647e-05
2.72438e-05
2.80816e-05
2.89419e-05
2.98201e-05
3.07164e-05
3.16257e-05
3.25326e-05
3.34478e-05
3.44023e-05
3.53693e-05
3.63143e-05
3.73246e-05
3.8323e-05
3.93204e-05
4.03424e-05
4.1375e-05
4.24465e-05
4.35155e-05
4.4581e-05
4.56637e-05
4.67642e-05
4.78823e-05
4.90186e-05
5.0173e-05
5.13234e-05
5.26183e-05
5.40063e-05
5.53706e-05
5.67255e-05
5.81002e-05
5.95352e-05
6.09605e-05
6.23526e-05
6.38516e-05
6.53384e-05
6.67998e-05
6.82801e-05
6.97796e-05
7.12987e-05
7.28373e-05
7.4407e-05
7.59441e-05
7.75419e-05
7.91721e-05
8.07213e-05
8.2333e-05
8.39634e-05
8.56255e-05
8.73936e-05
8.9289e-05
9.11567e-05
9.3031e-05
9.49932e-05
9.69099e-05
9.87912e-05
0.000100762
0.000102813
0.000104754
0.000106728
0.000108784
0.000110861
0.000112912
0.000114967
0.000117109
0.000119137
0.000121252
0.000123456
0.00012554
0.00012766
0.000129871
0.000132104
0.000134436
0.000136896
0.000139283
0.000141708
0.000144154
0.000146621
0.000149214
0.000151639
0.00015419
0.000156743
0.000159337
0.000161974
0.000164407
0.000167065
0.000169745
0.000172468
0.000175096
0.000177642
0.000180452
0.000183264
0.000185973
0.000188599
0.00019153
0.000194594
0.000197549
0.000200415
0.000203437
0.000206482
0.00020941
0.000212523
0.000215661
0.000218652
0.000221834
0.000224918
0.000228021
0.000231273
0.000234394
0.000237717
0.000240909
0.000243989
0.000247409
0.000250828
0.000253972
0.000257384
0.000260821
0.000264082
0.000267704
0.000271239
0.000274621
0.000278172
0.000281747
0.000285344
0.000288813
0.000292517
0.000296246
0.000299812
0.000303401
0.000307199
0.000311026
0.000314489
0.000318391
0.000322352
0.000325912
0.000329845
0.000333836
0.00033744
0.000341272
0.000345333
0.000349211
0.000353145
0.00035714
0.000361121
0.000365126
0.000369192
0.000373282
0.000377427
0.000381602
0.000385541
0.000389725
0.000394202
0.000398278
0.000402381
0.000406895
0.000410879
0.000414916
0.000419421
0.000423471
0.000427616
0.000432239
0.000436435
0.00044069
0.000445142
0.00044937
0.000453693
0.000458339
0.000462752
0.000467153
0.000472094
0.000476585
0.000480838
0.000485679
0.000490324
0.000494403
0.000498769
0.00050343
0.000507926
0.000512407
0.000517143
0.000521714
0.000526027
0.000530923
0.000535609
0.000540036
0.000545053
0.000549816
0.000554354
0.000559497
0.000564334
0.000568946
0.000573647
0.000578297
0.00058293
0.000587586
0.000592268
0.000597059
0.000601918
0.000606411
0.000611229
0.000616122
0.000620769
0.000625797
0.000630808
0.000635839
0.000640675
0.000645536
0.00065069
0.000655644
0.00066042
0.00066527
0.000669816
0.000674387
0.000679301
0.000683959
0.000688968
0.000694001
0.000698822
0.000703663
0.000708767
0.000713944
0.000718568
0.000723884
0.000729229
0.000733872
0.000738846
0.000743825
0.000748433
0.00075306
0.000757756
0.000762816
0.000767905
0.000772709
0.000777235
0.000782435
0.000787707
0.000792342
0.000797299
0.000802688
0.00080779
0.000812917
0.000818
0.000822596
0.000826946
0.000831624
0.000836687
0.000841452
0.000846239
0.000851092
0.000855647
0.000860536
0.000865814
0.000870845
0.000875896
0.000880913
0.00088605
0.000891212
0.000895752
0.000900356
0.000905078
0.000909766
0.000914468
0.000919289
0.000923745
0.000928928
0.000933801
0.000938354
0.000943739
0.000948764
0.000953364
0.00095847
0.000963623
0.000968172
0.000972739
0.00097737
0.000982065
0.000986379
0.000991149
0.000995934
0.00100068
0.00100554
0.00101007
0.00101496
0.00101997
0.00102484
0.00102977
0.00103474
0.00103903
0.00104333
0.00104794
0.00105256
0.00105739
0.00106183
0.00106608
0.00107074
0.00107561
0.00108049
0.00108529
0.00108969
0.00109482
0.00109943
0.00110349
0.00110821
0.00111242
0.00111682
0.00112132
0.00112573
0.00113049
0.00113524
0.0011396
0.00114404
0.00114857
0.00115344
0.00115825
0.00116232
0.00116678
0.00117117
0.00117506
0.00117944
0.00118391
0.00118838
0.00119286
0.00119727
0.00120161
0.0012061
0.00121108
0.00121551
0.00121968
0.0012237
0.00122772
0.00123216
0.00123654
0.0012405
0.001245
0.00124951
0.00125353
0.00125755
0.001262
0.00126693
0.00127144
0.00127515
0.00127915
0.00128358
0.00128763
0.00129168
0.00129568
0.00130015
0.00130419
0.00130819
0.00131269
0.0013172
0.00132162
0.00132554
0.00132919
0.00133323
0.00133765
0.00134172
0.00134538
0.0013494
0.00135384
0.00135788
0.00136188
0.0013663
0.00137036
0.00137433
0.00137837
0.0013824
0.00138603
0.00138966
0.00139412
0.00139814
0.00140215
0.00140617
0.00141018
0.00141417
0.00141814
0.00142196
0.00142602
0.00143008
0.00143368
0.00143727
0.00144129
0.00144528
0.00144882
0.00145324
0.00145721
0.00146116
0.0014651
0.0014687
0.0014723
0.00147588
0.00148031
0.00148386
0.00148739
0.00149134
0.00149528
0.0014992
0.00150266
0.00150655
0.0015106
0.00151415
0.00151768
0.00152165
0.00152515
0.00152862
0.00153253
0.00153641
0.00154026
0.00154365
0.00154744
0.00155139
0.00155491
0.00155842
0.00156188
0.00156528
0.00156909
0.00157293
0.00157631
0.00158009
0.00158383
0.00158742
0.00159088
0.00159427
0.00159809
0.00160147
0.00160483
0.0016086
0.00161187
0.00161552
0.00161962
0.00162278
0.00162616
0.00162947
0.0016328
0.00163659
0.00164026
0.0016434
0.00164662
0.00165069
0.00165424
0.00165725
0.00166053
0.00166424
0.00166747
0.00167065
0.00167426
0.0016774
0.00168088
0.00168471
0.00168768
0.00169102
0.0016947
0.00169783
0.00170086
0.0017043
0.00170777
0.00171084
0.00171416
0.00171783
0.00172115
0.00172428
0.00172722
0.00173056
0.00173403
0.00173701
0.00174024
0.00174342
0.00174702
0.00175012
0.00175315
0.00175648
0.00175931
0.00176255
0.00176619
0.0017689
0.00177191
0.00177533
0.00177871
0.0017816
0.0017844
0.00178796
0.00179093
0.00179384
0.00179692
0.00180029
0.00180342
0.00180614
0.00180927
0.00181223
0.00181515
0.00181812
0.00182128
0.00182427
0.00182743
0.00183066
0.00183325
0.00183593
0.001839
0.00184214
0.00184523
0.00184826
0.00185066
0.00185346
0.00185679
0.00185998
0.00186253
0.00186534
0.00186822
0.00187104
0.00187413
0.00187671
0.00187967
0.00188267
0.00188513
0.00188815
0.00189111
0.00189369
0.00189653
0.0018993
0.0019017
0.00190477
0.00190774
0.00191018
0.00191287
0.00191564
0.00191835
0.00192068
0.00192386
0.00192634
0.00192872
0.00193209
0.00193448
0.00193695
0.00193966
0.00194229
0.00194485
0.00194714
0.00194997
0.00195273
0.00195541
0.00195803
0.00196023
0.00196281
0.00196547
0.00196804
0.00197081
0.00197306
0.00197539
0.00197793
0.00198067
0.00198334
0.00198562
0.00198828
0.00199068
0.00199271
0.00199541
0.00199811
0.00200063
0.0020028
0.00200541
0.00200776
0.00201
0.00201283
0.00201622
0.00201913
0.00201666
0.00201956
0.00202733
0.00203061
0.00202888
0.00203168
0.00203444
0.00203292
0.00204064
0.00204311
0.00204128
0.0020443
0.0020514
0.00205375
0.00205173
0.00205432
0.00205657
0.00205871
0.00206548
0.00206794
0.00206575
0.00206769
0.00206951
0.00207622
0.00207811
0.00207506
0.00208145
0.00208297
0.00208456
0.00208631
0.00208765
0.00209372
0.0020951
0.00209634
0.00209744
0.00209841
0.00209925
0.00210482
0.00210566
0.00210634
0.00211179
0.00211244
0.00211785
0.00211825
0.00211826
0.00211816
0.00211833
0.00212848
0.00212841
0.00212793
0.00213252
0.00213222
0.00213153
0.00213589
0.00214037
0.00213922
0.00214316
0.00214742
0.00214644
0.00215011
0.00215347
0.00215177
0.00215032
0.0021538
0.00216185
0.00215968
0.00216284
0.00216571
0.00216316
0.00217106
0.00216817
0.00217025
0.00217791
0.00217481
0.00217659
0.00217842
0.00218
0.00218144
0.00218284
0.00218946
0.00219051
0.00219132
0.00219213
0.00219272
0.00219291
0.00219857
0.00219876
0.00219863
0.00220391
0.00220335
0.0022084
0.0022078
0.00221238
0.00221662
0.00220951
0.00221379
0.00221752
0.00222117
0.00222484
0.00222212
0.00222543
0.00222274
0.0022253
0.0022337
0.00223619
0.00223231
0.00223402
0.00223569
0.0022372
0.00224456
0.00224537
0.00224625
0.00224681
0.00224708
0.00224717
0.00225329
0.00225921
0.00225837
0.00225722
0.00225569
0.00226073
0.00226567
0.00226324
0.0022674
0.00227143
0.00227528
0.00227897
0.00227473
0.00227735
0.00228011
0.00228228
0.00228394
0.00228551
0.00228668
0.00229506
0.0022956
0.00228774
0.00229517
0.00230246
0.00230961
0.00230775
0.00230564
0.0023031
0.00230853
0.00231362
0.00230913
0.00231333
0.00231704
0.00232023
0.00232321
0.00232564
0.0023273
0.00232846
0.0023291
0.00232893
0.00233888
0.00233766
0.00233559
0.00233262
0.00232855
0.00234795
0.0023424
0.00233571
0.00235409
0.00234521
0.00233485
0.0023518
0.00235391
0.00233946
0.00233868
0.00235318
0.00235045
0.00232851
0.00233963
0.00235084
0.00234133
0.00232927
0.00233589
0.00234189
0.00232175
0.0022973
0.00229429
0.00231841
0.00231149
0.00226534
0.00224467
0.00225771
0.00222177
0.00222383
0.00215564
0.00204977
0.00196558
0.00197402
0.00494926
)
;

boundaryField
{
    INLET
    {
        type            cyclic;
    }
    OUTLET
    {
        type            cyclic;
    }
    CENTER
    {
        type            symmetryPlane;
    }
    WALL
    {
        type            fixedValue;
        value           uniform 0;
    }
    frontAndBackPlanes
    {
        type            empty;
    }
}


// ************************************************************************* //
