/*--------------------------------*- C++ -*----------------------------------*\
| =========                 |                                                 |
| \\      /  F ield         | OpenFOAM: The Open Source CFD Toolbox           |
|  \\    /   O peration     | Version:  v1806                                 |
|   \\  /    A nd           | Web:      www.OpenFOAM.com                      |
|    \\/     M anipulation  |                                                 |
\*---------------------------------------------------------------------------*/
FoamFile
{
    version     2.0;
    format      ascii;
    class       volScalarField;
    location    "10000";
    object      p;
}
// * * * * * * * * * * * * * * * * * * * * * * * * * * * * * * * * * * * * * //

dimensions      [0 2 -2 0 0 0 0];


internalField   nonuniform List<scalar> 
1025
(
1.58282e-15
6.01112e-15
6.92566e-15
6.75457e-15
6.65917e-15
6.68753e-15
6.73213e-15
6.76102e-15
6.77835e-15
6.79026e-15
6.79948e-15
6.80725e-15
6.81425e-15
6.8209e-15
6.82735e-15
6.83369e-15
6.83995e-15
6.84614e-15
6.85227e-15
6.85835e-15
6.86437e-15
6.87035e-15
6.87629e-15
6.8822e-15
6.88807e-15
6.89392e-15
6.89974e-15
6.90553e-15
6.91129e-15
6.91702e-15
6.92272e-15
6.92839e-15
6.93404e-15
6.93966e-15
6.94524e-15
6.9508e-15
6.95633e-15
6.96185e-15
6.96734e-15
6.9728e-15
6.97822e-15
6.98363e-15
6.989e-15
6.99433e-15
6.99967e-15
7.00498e-15
7.01026e-15
7.0155e-15
7.02071e-15
7.02591e-15
7.03109e-15
7.03623e-15
7.04138e-15
7.04651e-15
7.05157e-15
7.05662e-15
7.06166e-15
7.06667e-15
7.07166e-15
7.07664e-15
7.08157e-15
7.08647e-15
7.09136e-15
7.09622e-15
7.10107e-15
7.10587e-15
7.11068e-15
7.11548e-15
7.12027e-15
7.12502e-15
7.12973e-15
7.13441e-15
7.13904e-15
7.14369e-15
7.14836e-15
7.15297e-15
7.15753e-15
7.16209e-15
7.16663e-15
7.17114e-15
7.17565e-15
7.18014e-15
7.1846e-15
7.18901e-15
7.19341e-15
7.1978e-15
7.20218e-15
7.20654e-15
7.21085e-15
7.21516e-15
7.21946e-15
7.22375e-15
7.22799e-15
7.23221e-15
7.23643e-15
7.24064e-15
7.24481e-15
7.24896e-15
7.25309e-15
7.25721e-15
7.26128e-15
7.26537e-15
7.26943e-15
7.27348e-15
7.27751e-15
7.28154e-15
7.28552e-15
7.28944e-15
7.2934e-15
7.29736e-15
7.3013e-15
7.30518e-15
7.30906e-15
7.31286e-15
7.3167e-15
7.32056e-15
7.32438e-15
7.32826e-15
7.33206e-15
7.33583e-15
7.33956e-15
7.34332e-15
7.34706e-15
7.35073e-15
7.35442e-15
7.35812e-15
7.36178e-15
7.36541e-15
7.36898e-15
7.37264e-15
7.37623e-15
7.37982e-15
7.38337e-15
7.38693e-15
7.39045e-15
7.39398e-15
7.39748e-15
7.401e-15
7.40445e-15
7.40788e-15
7.41137e-15
7.41482e-15
7.41826e-15
7.42181e-15
7.42524e-15
7.42859e-15
7.43202e-15
7.43544e-15
7.43882e-15
7.44222e-15
7.44558e-15
7.44895e-15
7.45234e-15
7.45569e-15
7.45903e-15
7.46239e-15
7.46571e-15
7.469e-15
7.47223e-15
7.4757e-15
7.47902e-15
7.48225e-15
7.48558e-15
7.48889e-15
7.49217e-15
7.49549e-15
7.49886e-15
7.50209e-15
7.50537e-15
7.50873e-15
7.512e-15
7.51517e-15
7.51841e-15
7.52173e-15
7.52498e-15
7.52818e-15
7.5313e-15
7.53435e-15
7.5377e-15
7.5409e-15
7.54421e-15
7.54736e-15
7.55069e-15
7.554e-15
7.55719e-15
7.56054e-15
7.56391e-15
7.56741e-15
7.57074e-15
7.57409e-15
7.5775e-15
7.581e-15
7.58449e-15
7.58801e-15
7.5914e-15
7.5947e-15
7.59831e-15
7.60206e-15
7.60561e-15
7.60915e-15
7.61291e-15
7.61669e-15
7.62048e-15
7.62421e-15
7.62818e-15
7.63207e-15
7.63583e-15
7.63966e-15
7.64362e-15
7.64762e-15
7.65192e-15
7.6561e-15
7.66022e-15
7.66454e-15
7.66868e-15
7.67303e-15
7.67743e-15
7.68187e-15
7.68631e-15
7.69085e-15
7.69555e-15
7.70019e-15
7.70488e-15
7.7095e-15
7.71424e-15
7.71885e-15
7.72369e-15
7.72866e-15
7.73407e-15
7.73902e-15
7.74384e-15
7.74898e-15
7.75432e-15
7.75959e-15
7.76526e-15
7.77093e-15
7.77591e-15
7.78122e-15
7.78689e-15
7.79278e-15
7.79852e-15
7.80418e-15
7.81013e-15
7.81571e-15
7.8212e-15
7.82761e-15
7.83387e-15
7.84005e-15
7.84622e-15
7.85247e-15
7.85913e-15
7.86545e-15
7.87185e-15
7.87815e-15
7.88505e-15
7.89212e-15
7.89911e-15
7.90617e-15
7.91341e-15
7.92121e-15
7.92871e-15
7.93593e-15
7.94371e-15
7.95148e-15
7.95934e-15
7.96719e-15
7.97543e-15
7.98387e-15
7.9925e-15
8.00133e-15
8.00994e-15
8.01875e-15
8.02787e-15
8.03751e-15
8.04672e-15
8.05524e-15
8.06452e-15
8.07435e-15
8.08382e-15
8.09441e-15
8.105e-15
8.11405e-15
8.12318e-15
8.13336e-15
8.14315e-15
8.15413e-15
8.1652e-15
8.17365e-15
8.18443e-15
8.19656e-15
8.20804e-15
8.21807e-15
8.22819e-15
8.23944e-15
8.25157e-15
8.26327e-15
8.27479e-15
8.28668e-15
8.29758e-15
8.3091e-15
8.32127e-15
8.33269e-15
8.34448e-15
8.35664e-15
8.36889e-15
8.38065e-15
8.39249e-15
8.40616e-15
8.41875e-15
8.43026e-15
8.44272e-15
8.45587e-15
8.4676e-15
8.47971e-15
8.4922e-15
8.50476e-15
8.51741e-15
8.53043e-15
8.54354e-15
8.55484e-15
8.56811e-15
8.58303e-15
8.59612e-15
8.60929e-15
8.62285e-15
8.63616e-15
8.65182e-15
8.6656e-15
8.67978e-15
8.69436e-15
8.70736e-15
8.72108e-15
8.73588e-15
8.74941e-15
8.76401e-15
8.77937e-15
8.7924e-15
8.80755e-15
8.82311e-15
8.83944e-15
8.8534e-15
8.86812e-15
8.88396e-15
8.90092e-15
8.91618e-15
8.93079e-15
8.94761e-15
8.96341e-15
8.98071e-15
8.99447e-15
9.01009e-15
9.02432e-15
9.04225e-15
9.06097e-15
9.07903e-15
9.09494e-15
9.11164e-15
9.12914e-15
9.14484e-15
9.16171e-15
9.17714e-15
9.19261e-15
9.21002e-15
9.22673e-15
9.24311e-15
9.25954e-15
9.27716e-15
9.29791e-15
9.31564e-15
9.32724e-15
9.34429e-15
9.36411e-15
9.38592e-15
9.39961e-15
9.41137e-15
9.42904e-15
9.44637e-15
9.46611e-15
9.48234e-15
9.499e-15
9.5165e-15
9.53165e-15
9.54764e-15
9.56525e-15
9.58292e-15
9.59901e-15
9.61594e-15
9.63049e-15
9.6483e-15
9.66777e-15
9.68485e-15
9.70195e-15
9.71747e-15
9.73464e-15
9.7543e-15
9.77318e-15
9.79045e-15
9.80529e-15
9.82262e-15
9.83916e-15
9.85077e-15
9.87233e-15
9.88896e-15
9.90311e-15
9.92229e-15
9.94066e-15
9.95906e-15
9.97414e-15
9.99008e-15
1.00069e-14
1.00246e-14
1.00439e-14
1.00616e-14
1.0076e-14
1.00887e-14
1.01031e-14
1.01184e-14
1.01345e-14
1.01524e-14
1.01677e-14
1.01814e-14
1.01976e-14
1.02112e-14
1.02266e-14
1.02378e-14
1.02549e-14
1.02687e-14
1.02807e-14
1.02953e-14
1.03125e-14
1.0328e-14
1.03401e-14
1.03556e-14
1.03686e-14
1.03842e-14
1.04023e-14
1.04162e-14
1.04327e-14
1.04465e-14
1.04622e-14
1.04795e-14
1.04978e-14
1.05117e-14
1.05326e-14
1.05509e-14
1.057e-14
1.0584e-14
1.06032e-14
1.06224e-14
1.06425e-14
1.06634e-14
1.06792e-14
1.06958e-14
1.07177e-14
1.07439e-14
1.07527e-14
1.07623e-14
1.07886e-14
1.0814e-14
1.08316e-14
1.08474e-14
1.08693e-14
1.08974e-14
1.09115e-14
1.09229e-14
1.09396e-14
1.09581e-14
1.09792e-14
1.1003e-14
1.10153e-14
1.1039e-14
1.10531e-14
1.10707e-14
1.10892e-14
1.11086e-14
1.11227e-14
1.1143e-14
1.11606e-14
1.11782e-14
1.11941e-14
1.12011e-14
1.12293e-14
1.12522e-14
1.12698e-14
1.1291e-14
1.13104e-14
1.13297e-14
1.13509e-14
1.13703e-14
1.13879e-14
1.1409e-14
1.14284e-14
1.1446e-14
1.14601e-14
1.1483e-14
1.15059e-14
1.15287e-14
1.15534e-14
1.15745e-14
1.15921e-14
1.16062e-14
1.16395e-14
1.16641e-14
1.16835e-14
1.17045e-14
1.17291e-14
1.17484e-14
1.17677e-14
1.1787e-14
1.18098e-14
1.18274e-14
1.18484e-14
1.18762e-14
1.18972e-14
1.19182e-14
1.19392e-14
1.19619e-14
1.19847e-14
1.20022e-14
1.20144e-14
1.20388e-14
1.20702e-14
1.20825e-14
1.20964e-14
1.21226e-14
1.21296e-14
1.2147e-14
1.21644e-14
1.21783e-14
1.2187e-14
1.22027e-14
1.22183e-14
1.22322e-14
1.22478e-14
1.22651e-14
1.22721e-14
1.22859e-14
1.2305e-14
1.23309e-14
1.23378e-14
1.23396e-14
1.23431e-14
1.23672e-14
1.23861e-14
1.23999e-14
1.24206e-14
1.24326e-14
1.24447e-14
1.24584e-14
1.24636e-14
1.24585e-14
1.24859e-14
1.25115e-14
1.25167e-14
1.2515e-14
1.25219e-14
1.25355e-14
1.25389e-14
1.25526e-14
1.25509e-14
1.2556e-14
1.25713e-14
1.25781e-14
1.25968e-14
1.26205e-14
1.26256e-14
1.26087e-14
1.25986e-14
1.26121e-14
1.26206e-14
1.26257e-14
1.26375e-14
1.26559e-14
1.26442e-14
1.26409e-14
1.2651e-14
1.26711e-14
1.26745e-14
1.26812e-14
1.26712e-14
1.26812e-14
1.26879e-14
1.26813e-14
1.2688e-14
1.27079e-14
1.27013e-14
1.26914e-14
1.26815e-14
1.2708e-14
1.27212e-14
1.27212e-14
1.27081e-14
1.2695e-14
1.2718e-14
1.27278e-14
1.27279e-14
1.27573e-14
1.27867e-14
1.27933e-14
1.27835e-14
1.27738e-14
1.27544e-14
1.27544e-14
1.27641e-14
1.27642e-14
1.27674e-14
1.27804e-14
1.27868e-14
1.27933e-14
1.28062e-14
1.27934e-14
1.2787e-14
1.28095e-14
1.28127e-14
1.28095e-14
1.28351e-14
1.28128e-14
1.28256e-14
1.28637e-14
1.28701e-14
1.28511e-14
1.28638e-14
1.28733e-14
1.28954e-14
1.29269e-14
1.29678e-14
1.29679e-14
1.29836e-14
1.2993e-14
1.30149e-14
1.30399e-14
1.3043e-14
1.30617e-14
1.30991e-14
1.31084e-14
1.31084e-14
1.31518e-14
1.3195e-14
1.32382e-14
1.32444e-14
1.32598e-14
1.32844e-14
1.33089e-14
1.33334e-14
1.3361e-14
1.33945e-14
1.34159e-14
1.34524e-14
1.34797e-14
1.351e-14
1.35312e-14
1.35645e-14
1.35705e-14
1.35796e-14
1.36247e-14
1.36697e-14
1.37206e-14
1.37386e-14
1.37446e-14
1.37714e-14
1.38071e-14
1.38398e-14
1.38576e-14
1.38931e-14
1.39256e-14
1.39286e-14
1.39345e-14
1.39668e-14
1.39903e-14
1.39991e-14
1.40283e-14
1.40517e-14
1.40517e-14
1.4075e-14
1.41214e-14
1.41272e-14
1.41272e-14
1.41561e-14
1.41734e-14
1.42079e-14
1.42366e-14
1.42366e-14
1.42481e-14
1.42652e-14
1.42823e-14
1.42993e-14
1.4339e-14
1.43447e-14
1.4356e-14
1.43504e-14
1.43561e-14
1.43505e-14
1.43505e-14
1.43617e-14
1.43729e-14
1.43674e-14
1.4373e-14
1.43841e-14
1.43841e-14
1.44007e-14
1.44062e-14
1.43897e-14
1.43953e-14
1.44281e-14
1.44336e-14
1.44336e-14
1.44337e-14
1.44283e-14
1.44337e-14
1.44067e-14
1.44283e-14
1.44391e-14
1.44284e-14
1.44069e-14
1.44016e-14
1.4391e-14
1.43804e-14
1.43804e-14
1.43327e-14
1.43063e-14
1.42905e-14
1.428e-14
1.42852e-14
1.42695e-14
1.42382e-14
1.41912e-14
1.41704e-14
1.41497e-14
1.41445e-14
1.41084e-14
1.40775e-14
1.40517e-14
1.40364e-14
1.40364e-14
1.40109e-14
1.39752e-14
1.39447e-14
1.39092e-14
1.3884e-14
1.38638e-14
1.38437e-14
1.38587e-14
1.38487e-14
1.38138e-14
1.37639e-14
1.37689e-14
1.37491e-14
1.37144e-14
1.36947e-14
1.36898e-14
1.368e-14
1.36996e-14
1.36361e-14
1.36117e-14
1.35971e-14
1.35729e-14
1.35439e-14
1.35294e-14
1.34957e-14
1.34861e-14
1.34766e-14
1.34623e-14
1.34432e-14
1.34195e-14
1.34337e-14
1.34243e-14
1.3396e-14
1.33866e-14
1.33866e-14
1.33492e-14
1.33306e-14
1.33027e-14
1.32934e-14
1.32842e-14
1.32934e-14
1.32382e-14
1.31739e-14
1.31099e-14
1.31555e-14
1.31555e-14
1.31192e-14
1.30921e-14
1.3074e-14
1.30651e-14
1.30651e-14
1.30382e-14
1.30204e-14
1.29848e-14
1.29226e-14
1.29758e-14
1.29846e-14
1.29846e-14
1.29671e-14
1.29409e-14
1.2906e-14
1.28886e-14
1.29233e-14
1.28714e-14
1.28542e-14
1.28456e-14
1.28456e-14
1.28798e-14
1.28713e-14
1.28288e-14
1.27949e-14
1.28034e-14
1.28456e-14
1.28204e-14
1.27869e-14
1.27785e-14
1.27869e-14
1.28118e-14
1.28118e-14
1.27953e-14
1.282e-14
1.28446e-14
1.28038e-14
1.27794e-14
1.27875e-14
1.27956e-14
1.28037e-14
1.28118e-14
1.27957e-14
1.27957e-14
1.28276e-14
1.28118e-14
1.28118e-14
1.28355e-14
1.28433e-14
1.28434e-14
1.28903e-14
1.29215e-14
1.2937e-14
1.29293e-14
1.28907e-14
1.28907e-14
1.29214e-14
1.2952e-14
1.28911e-14
1.29063e-14
1.2929e-14
1.29592e-14
1.29667e-14
1.29442e-14
1.2892e-14
1.28994e-14
1.28772e-14
1.27959e-14
1.27222e-14
1.27222e-14
1.27003e-14
1.26638e-14
1.26421e-14
1.26348e-14
1.25843e-14
1.25412e-14
1.25412e-14
1.24269e-14
1.24625e-14
1.2498e-14
1.24838e-14
1.25402e-14
1.25262e-14
1.24632e-14
1.23656e-14
1.23517e-14
1.2331e-14
1.23448e-14
1.23035e-14
1.23173e-14
1.23309e-14
1.23581e-14
1.2331e-14
1.2304e-14
1.2331e-14
1.23176e-14
1.23443e-14
1.23443e-14
1.23974e-14
1.24106e-14
1.24106e-14
1.24106e-14
1.24499e-14
1.24238e-14
1.25147e-14
1.2657e-14
1.25926e-14
1.26054e-14
1.27206e-14
1.28226e-14
1.27845e-14
1.27971e-14
1.27972e-14
1.29228e-14
1.29979e-14
1.30976e-14
1.31722e-14
1.32589e-14
1.34315e-14
1.35052e-14
1.34808e-14
1.34564e-14
1.35657e-14
1.36626e-14
1.37591e-14
1.37471e-14
1.37351e-14
1.3747e-14
1.38896e-14
1.39962e-14
1.40787e-14
1.41257e-14
1.42077e-14
1.4266e-14
1.43357e-14
1.43357e-14
1.44049e-14
1.44509e-14
1.45882e-14
1.45996e-14
1.46224e-14
1.47582e-14
1.48484e-14
1.49046e-14
1.49605e-14
1.50386e-14
1.51385e-14
1.51828e-14
1.526e-14
1.53589e-14
1.54355e-14
1.55663e-14
1.56858e-14
1.5675e-14
1.57289e-14
1.58471e-14
1.59327e-14
1.59647e-14
1.60072e-14
1.60389e-14
1.61444e-14
1.6239e-14
1.62808e-14
1.63747e-14
1.64266e-14
1.64267e-14
1.63441e-14
1.63647e-14
1.64569e-14
1.6365e-14
1.65074e-14
1.65276e-14
1.6568e-14
1.6578e-14
1.6568e-14
1.65481e-14
1.66078e-14
1.66474e-14
1.66474e-14
1.66474e-14
1.67454e-14
1.67748e-14
1.68429e-14
1.69108e-14
1.69591e-14
1.68917e-14
1.68917e-14
1.69682e-14
1.70158e-14
1.70633e-14
1.7139e-14
1.7205e-14
1.7252e-14
1.72613e-14
1.73173e-14
1.73173e-14
1.73266e-14
1.74835e-14
1.75387e-14
1.74837e-14
1.75385e-14
1.75931e-14
1.76656e-14
1.77921e-14
1.77561e-14
1.77202e-14
1.7756e-14
1.78095e-14
1.7845e-14
1.78627e-14
1.79861e-14
1.79334e-14
1.78634e-14
1.78111e-14
1.78111e-14
1.77591e-14
1.77419e-14
1.77419e-14
1.76562e-14
1.76051e-14
1.7741e-14
1.76902e-14
1.7724e-14
1.76736e-14
1.76568e-14
1.75067e-14
1.74403e-14
1.74072e-14
1.73412e-14
1.73577e-14
1.7374e-14
1.73089e-14
1.72764e-14
1.72926e-14
1.72282e-14
1.71641e-14
1.7212e-14
1.71802e-14
1.71011e-14
1.70854e-14
1.71011e-14
1.71323e-14
1.71012e-14
1.71012e-14
1.71587e-14
)
;

boundaryField
{
    INLET
    {
        type            cyclic;
    }
    OUTLET
    {
        type            cyclic;
    }
    CENTER
    {
        type            symmetryPlane;
    }
    WALL
    {
        type            zeroGradient;
    }
    frontAndBackPlanes
    {
        type            empty;
    }
}


// ************************************************************************* //
