/*--------------------------------*- C++ -*----------------------------------*\
| =========                 |                                                 |
| \\      /  F ield         | OpenFOAM: The Open Source CFD Toolbox           |
|  \\    /   O peration     | Version:  v1806                                 |
|   \\  /    A nd           | Web:      www.OpenFOAM.com                      |
|    \\/     M anipulation  |                                                 |
\*---------------------------------------------------------------------------*/
FoamFile
{
    version     2.0;
    format      ascii;
    class       surfaceScalarField;
    location    "10000";
    object      phi;
}
// * * * * * * * * * * * * * * * * * * * * * * * * * * * * * * * * * * * * * //

dimensions      [0 3 -1 0 0 0 0];
oriented        oriented;


internalField   nonuniform List<scalar> 
1024
(
-4.31225e-18
-4.31217e-18
-4.31219e-18
-4.31213e-18
-4.31215e-18
-4.31211e-18
-4.31212e-18
-4.31209e-18
-4.31211e-18
-4.31209e-18
-4.3121e-18
-4.31208e-18
-4.31209e-18
-4.31207e-18
-4.31207e-18
-4.31206e-18
-4.31207e-18
-4.31206e-18
-4.31207e-18
-4.31205e-18
-4.31205e-18
-4.31205e-18
-4.31206e-18
-4.31206e-18
-4.31207e-18
-4.31207e-18
-4.31207e-18
-4.31206e-18
-4.31206e-18
-4.31204e-18
-4.31205e-18
-4.31204e-18
-4.31203e-18
-4.31201e-18
-4.31201e-18
-4.31201e-18
-4.31202e-18
-4.31201e-18
-4.312e-18
-4.31198e-18
-4.31198e-18
-4.31195e-18
-4.31194e-18
-4.31196e-18
-4.31194e-18
-4.31194e-18
-4.31193e-18
-4.31192e-18
-4.31192e-18
-4.31193e-18
-4.31194e-18
-4.31196e-18
-4.31196e-18
-4.31195e-18
-4.31195e-18
-4.31195e-18
-4.31195e-18
-4.31191e-18
-4.3119e-18
-4.31188e-18
-4.31186e-18
-4.31186e-18
-4.31185e-18
-4.31186e-18
-4.31186e-18
-4.31188e-18
-4.31188e-18
-4.3119e-18
-4.31187e-18
-4.31182e-18
-4.31179e-18
-4.31174e-18
-4.31176e-18
-4.31182e-18
-4.31179e-18
-4.31172e-18
-4.31171e-18
-4.31172e-18
-4.31172e-18
-4.31173e-18
-4.31172e-18
-4.31167e-18
-4.31169e-18
-4.31168e-18
-4.31167e-18
-4.31168e-18
-4.31168e-18
-4.31168e-18
-4.31168e-18
-4.3117e-18
-4.31169e-18
-4.31166e-18
-4.31165e-18
-4.31167e-18
-4.31167e-18
-4.3116e-18
-4.3116e-18
-4.31161e-18
-4.31161e-18
-4.31157e-18
-4.3116e-18
-4.31161e-18
-4.3116e-18
-4.31159e-18
-4.31157e-18
-4.31157e-18
-4.31158e-18
-4.31159e-18
-4.31159e-18
-4.31159e-18
-4.31147e-18
-4.31148e-18
-4.31147e-18
-4.31153e-18
-4.31168e-18
-4.31169e-18
-4.31178e-18
-4.31177e-18
-4.31174e-18
-4.31162e-18
-4.31166e-18
-4.31167e-18
-4.31152e-18
-4.31153e-18
-4.31152e-18
-4.31149e-18
-4.31146e-18
-4.31134e-18
-4.31149e-18
-4.31141e-18
-4.31135e-18
-4.31137e-18
-4.31132e-18
-4.31125e-18
-4.31125e-18
-4.31123e-18
-4.31124e-18
-4.31119e-18
-4.31118e-18
-4.31126e-18
-4.31125e-18
-4.31127e-18
-4.31142e-18
-4.31134e-18
-4.31124e-18
-4.31128e-18
-4.31122e-18
-4.31126e-18
-4.31123e-18
-4.31115e-18
-4.31112e-18
-4.31113e-18
-4.31109e-18
-4.3111e-18
-4.31109e-18
-4.31109e-18
-4.31112e-18
-4.3111e-18
-4.31132e-18
-4.31123e-18
-4.31122e-18
-4.3112e-18
-4.31124e-18
-4.31128e-18
-4.31131e-18
-4.31132e-18
-4.3113e-18
-4.31124e-18
-4.31121e-18
-4.31087e-18
-4.3105e-18
-4.3105e-18
-4.31052e-18
-4.31023e-18
-4.30996e-18
-4.30972e-18
-4.30949e-18
-4.30981e-18
-4.30982e-18
-4.30987e-18
-4.30985e-18
-4.30995e-18
-4.30991e-18
-4.30981e-18
-4.31008e-18
-4.31019e-18
-4.31026e-18
-4.31012e-18
-4.31004e-18
-4.30998e-18
-4.30995e-18
-4.30963e-18
-4.30947e-18
-4.3094e-18
-4.30934e-18
-4.3095e-18
-4.30975e-18
-4.30977e-18
-4.30972e-18
-4.30993e-18
-4.30998e-18
-4.30999e-18
-4.31007e-18
-4.31003e-18
-4.30989e-18
-4.30981e-18
-4.30981e-18
-4.30986e-18
-4.30976e-18
-4.31017e-18
-4.31018e-18
-4.31024e-18
-4.31015e-18
-4.30982e-18
-4.3097e-18
-4.3099e-18
-4.30977e-18
-4.30969e-18
-4.30969e-18
-4.30977e-18
-4.30967e-18
-4.3097e-18
-4.30927e-18
-4.30914e-18
-4.30934e-18
-4.30943e-18
-4.30964e-18
-4.30955e-18
-4.30924e-18
-4.30912e-18
-4.3092e-18
-4.30923e-18
-4.30903e-18
-4.30903e-18
-4.30871e-18
-4.30766e-18
-4.30757e-18
-4.30752e-18
-4.30744e-18
-4.30763e-18
-4.30704e-18
-4.30707e-18
-4.30689e-18
-4.30704e-18
-4.30736e-18
-4.30717e-18
-4.30732e-18
-4.30747e-18
-4.30754e-18
-4.30769e-18
-4.3071e-18
-4.30719e-18
-4.30713e-18
-4.3073e-18
-4.30719e-18
-4.30725e-18
-4.30717e-18
-4.30704e-18
-4.30704e-18
-4.30706e-18
-4.30661e-18
-4.30653e-18
-4.3063e-18
-4.30593e-18
-4.30606e-18
-4.30614e-18
-4.30621e-18
-4.30635e-18
-4.30642e-18
-4.30631e-18
-4.3063e-18
-4.30627e-18
-4.30616e-18
-4.30521e-18
-4.30527e-18
-4.30518e-18
-4.3052e-18
-4.30541e-18
-4.30557e-18
-4.30458e-18
-4.30351e-18
-4.30288e-18
-4.30279e-18
-4.30299e-18
-4.30286e-18
-4.30236e-18
-4.301e-18
-4.30211e-18
-4.30207e-18
-4.30225e-18
-4.30154e-18
-4.30145e-18
-4.30182e-18
-4.30152e-18
-4.30147e-18
-4.30131e-18
-4.30128e-18
-4.30097e-18
-4.30103e-18
-4.30119e-18
-4.30113e-18
-4.30136e-18
-4.30149e-18
-4.3016e-18
-4.30155e-18
-4.30166e-18
-4.30133e-18
-4.30013e-18
-4.30039e-18
-4.30024e-18
-4.29986e-18
-4.29898e-18
-4.29863e-18
-4.29838e-18
-4.29814e-18
-4.29798e-18
-4.29788e-18
-4.29783e-18
-4.29744e-18
-4.2979e-18
-4.29812e-18
-4.29853e-18
-4.29866e-18
-4.29879e-18
-4.29875e-18
-4.3001e-18
-4.29873e-18
-4.29855e-18
-4.29825e-18
-4.29757e-18
-4.2975e-18
-4.29763e-18
-4.29726e-18
-4.29746e-18
-4.29754e-18
-4.29693e-18
-4.29815e-18
-4.29814e-18
-4.29821e-18
-4.2976e-18
-4.29755e-18
-4.29742e-18
-4.29739e-18
-4.29681e-18
-4.29604e-18
-4.29641e-18
-4.29599e-18
-4.2956e-18
-4.29496e-18
-4.29503e-18
-4.29461e-18
-4.29625e-18
-4.29657e-18
-4.29681e-18
-4.29588e-18
-4.29557e-18
-4.29526e-18
-4.29436e-18
-4.29415e-18
-4.29431e-18
-4.29471e-18
-4.29468e-18
-4.29477e-18
-4.2949e-18
-4.29505e-18
-4.29531e-18
-4.29572e-18
-4.2949e-18
-4.2942e-18
-4.2944e-18
-4.29408e-18
-4.29438e-18
-4.29191e-18
-4.29172e-18
-4.29235e-18
-4.29264e-18
-4.29439e-18
-4.2932e-18
-4.29324e-18
-4.29321e-18
-4.29254e-18
-4.29256e-18
-4.29262e-18
-4.29216e-18
-4.29252e-18
-4.292e-18
-4.29267e-18
-4.29278e-18
-4.29247e-18
-4.2931e-18
-4.29269e-18
-4.29223e-18
-4.29243e-18
-4.29294e-18
-4.29295e-18
-4.29092e-18
-4.29004e-18
-4.29042e-18
-4.29087e-18
-4.28934e-18
-4.29032e-18
-4.28992e-18
-4.2898e-18
-4.29212e-18
-4.2917e-18
-4.2917e-18
-4.29111e-18
-4.29119e-18
-4.29114e-18
-4.29106e-18
-4.29075e-18
-4.28965e-18
-4.28858e-18
-4.28655e-18
-4.2866e-18
-4.28667e-18
-4.28675e-18
-4.28699e-18
-4.28481e-18
-4.28539e-18
-4.28493e-18
-4.28362e-18
-4.28364e-18
-4.28149e-18
-4.28119e-18
-4.28046e-18
-4.28013e-18
-4.28054e-18
-4.28072e-18
-4.27848e-18
-4.27881e-18
-4.27885e-18
-4.27934e-18
-4.27905e-18
-4.27861e-18
-4.27696e-18
-4.27778e-18
-4.27752e-18
-4.27836e-18
-4.27785e-18
-4.2773e-18
-4.27728e-18
-4.2795e-18
-4.28007e-18
-4.27957e-18
-4.27763e-18
-4.27924e-18
-4.27878e-18
-4.2786e-18
-4.27846e-18
-4.27736e-18
-4.27724e-18
-4.27739e-18
-4.27747e-18
-4.27555e-18
-4.27576e-18
-4.27897e-18
-4.27929e-18
-4.27675e-18
-4.27657e-18
-4.27698e-18
-4.27732e-18
-4.27452e-18
-4.272e-18
-4.27215e-18
-4.27214e-18
-4.27219e-18
-4.27215e-18
-4.26918e-18
-4.27028e-18
-4.26905e-18
-4.26888e-18
-4.26814e-18
-4.26841e-18
-4.26649e-18
-4.26612e-18
-4.26541e-18
-4.26549e-18
-4.26565e-18
-4.26458e-18
-4.27178e-18
-4.2713e-18
-4.27072e-18
-4.27111e-18
-4.27027e-18
-4.26961e-18
-4.26903e-18
-4.26829e-18
-4.26811e-18
-4.26854e-18
-4.2677e-18
-4.2674e-18
-4.26683e-18
-4.27161e-18
-4.27225e-18
-4.27303e-18
-4.27353e-18
-4.27282e-18
-4.27245e-18
-4.27145e-18
-4.27362e-18
-4.271e-18
-4.27229e-18
-4.27116e-18
-4.27082e-18
-4.26958e-18
-4.26914e-18
-4.26868e-18
-4.26956e-18
-4.26898e-18
-4.26981e-18
-4.26912e-18
-4.26804e-18
-4.26867e-18
-4.26928e-18
-4.26924e-18
-4.26841e-18
-4.26405e-18
-4.26231e-18
-4.26301e-18
-4.26314e-18
-4.25891e-18
-4.25398e-18
-4.2538e-18
-4.24889e-18
-4.2495e-18
-4.24496e-18
-4.24361e-18
-4.2424e-18
-4.24096e-18
-4.24162e-18
-4.24201e-18
-4.24275e-18
-4.24353e-18
-4.24224e-18
-4.24139e-18
-4.24275e-18
-4.2441e-18
-4.24045e-18
-4.23979e-18
-4.24051e-18
-4.24515e-18
-4.24587e-18
-4.24611e-18
-4.2501e-18
-4.24524e-18
-4.24564e-18
-4.24709e-18
-4.2454e-18
-4.24401e-18
-4.24687e-18
-4.24648e-18
-4.24273e-18
-4.24341e-18
-4.24284e-18
-4.24185e-18
-4.24018e-18
-4.24177e-18
-4.24129e-18
-4.24215e-18
-4.24054e-18
-4.24084e-18
-4.23995e-18
-4.23891e-18
-4.23029e-18
-4.21927e-18
-4.21804e-18
-4.22173e-18
-4.22155e-18
-4.22156e-18
-4.22155e-18
-4.22063e-18
-4.20921e-18
-4.21081e-18
-4.21232e-18
-4.21118e-18
-4.21124e-18
-4.21371e-18
-4.1997e-18
-4.19923e-18
-4.1952e-18
-4.19739e-18
-4.19782e-18
-4.19737e-18
-4.18319e-18
-4.18074e-18
-4.17878e-18
-4.18288e-18
-4.18359e-18
-4.18608e-18
-4.18353e-18
-4.18356e-18
-4.19106e-18
-4.19033e-18
-4.18832e-18
-4.18913e-18
-4.18761e-18
-4.17479e-18
-4.16799e-18
-4.1527e-18
-4.14326e-18
-4.15315e-18
-4.15243e-18
-4.15112e-18
-4.15837e-18
-4.15505e-18
-4.15448e-18
-4.15351e-18
-4.15279e-18
-4.14593e-18
-4.14499e-18
-4.14865e-18
-4.14431e-18
-4.14086e-18
-4.14342e-18
-4.13619e-18
-4.13657e-18
-4.13974e-18
-4.13383e-18
-4.1289e-18
-4.13396e-18
-4.13319e-18
-4.13702e-18
-4.13919e-18
-4.13594e-18
-4.1288e-18
-4.12594e-18
-4.11847e-18
-4.11662e-18
-4.11352e-18
-4.11227e-18
-4.11943e-18
-4.12177e-18
-4.12214e-18
-4.12077e-18
-4.13618e-18
-4.13554e-18
-4.13478e-18
-4.12579e-18
-4.12491e-18
-4.12376e-18
-4.12253e-18
-4.12169e-18
-4.12099e-18
-4.1205e-18
-4.12153e-18
-4.1225e-18
-4.11972e-18
-4.11996e-18
-4.11609e-18
-4.11737e-18
-4.10097e-18
-4.11057e-18
-4.12049e-18
-4.12253e-18
-4.11966e-18
-4.11325e-18
-4.10935e-18
-4.11224e-18
-4.10991e-18
-4.11301e-18
-4.09776e-18
-4.09906e-18
-4.09056e-18
-4.07617e-18
-4.06772e-18
-4.07071e-18
-4.06786e-18
-4.06459e-18
-4.06384e-18
-4.06546e-18
-4.05044e-18
-4.05588e-18
-4.05e-18
-4.04246e-18
-4.03939e-18
-4.04236e-18
-4.04881e-18
-4.05015e-18
-4.04917e-18
-4.03156e-18
-4.03345e-18
-4.0347e-18
-4.03652e-18
-4.03753e-18
-4.04415e-18
-4.02567e-18
-4.02596e-18
-4.00731e-18
-4.01171e-18
-4.00262e-18
-4.00872e-18
-4.01334e-18
-4.01628e-18
-4.01616e-18
-4.01955e-18
-4.01887e-18
-4.01298e-18
-4.01367e-18
-4.0114e-18
-4.00759e-18
-4.01103e-18
-4.01628e-18
-4.00995e-18
-3.99377e-18
-3.99061e-18
-3.98934e-18
-3.98592e-18
-3.97529e-18
-3.98143e-18
-3.97179e-18
-3.95952e-18
-3.94725e-18
-3.94056e-18
-3.93927e-18
-3.92361e-18
-3.92034e-18
-3.90273e-18
-3.90391e-18
-3.90455e-18
-3.90442e-18
-3.90695e-18
-3.90019e-18
-3.88104e-18
-3.8754e-18
-3.87271e-18
-3.87734e-18
-3.87259e-18
-3.86613e-18
-3.86802e-18
-3.86913e-18
-3.86905e-18
-3.86717e-18
-3.85164e-18
-3.84898e-18
-3.84044e-18
-3.84441e-18
-3.83904e-18
-3.84505e-18
-3.84986e-18
-3.85072e-18
-3.83601e-18
-3.80997e-18
-3.80787e-18
-3.81029e-18
-3.7959e-18
-3.79758e-18
-3.79301e-18
-3.79071e-18
-3.78145e-18
-3.78108e-18
-3.7399e-18
-3.73758e-18
-3.73909e-18
-3.73235e-18
-3.73848e-18
-3.73464e-18
-3.736e-18
-3.74022e-18
-3.73939e-18
-3.73788e-18
-3.73689e-18
-3.73536e-18
-3.7429e-18
-3.73138e-18
-3.71917e-18
-3.72387e-18
-3.7105e-18
-3.68327e-18
-3.67225e-18
-3.67941e-18
-3.67143e-18
-3.65565e-18
-3.64661e-18
-3.61892e-18
-3.61121e-18
-3.60229e-18
-3.62037e-18
-3.62325e-18
-3.6318e-18
-3.62696e-18
-3.62619e-18
-3.62765e-18
-3.63236e-18
-3.62947e-18
-3.63422e-18
-3.63404e-18
-3.62885e-18
-3.66097e-18
-3.65114e-18
-3.64997e-18
-3.63867e-18
-3.62644e-18
-3.58908e-18
-3.58468e-18
-3.61883e-18
-3.58617e-18
-3.58339e-18
-3.57534e-18
-3.5713e-18
-3.57322e-18
-3.55516e-18
-3.54113e-18
-3.5384e-18
-3.54676e-18
-3.55661e-18
-3.53812e-18
-3.53635e-18
-3.54713e-18
-3.56053e-18
-3.54897e-18
-3.54529e-18
-3.53941e-18
-3.546e-18
-3.53572e-18
-3.50369e-18
-3.49999e-18
-3.50559e-18
-3.50213e-18
-3.49472e-18
-3.48342e-18
-3.48803e-18
-3.50153e-18
-3.49319e-18
-3.48985e-18
-3.48855e-18
-3.49435e-18
-3.47145e-18
-3.47108e-18
-3.4807e-18
-3.49267e-18
-3.47349e-18
-3.44871e-18
-3.40202e-18
-3.40419e-18
-3.40168e-18
-3.39679e-18
-3.36824e-18
-3.36548e-18
-3.35394e-18
-3.35998e-18
-3.29571e-18
-3.27933e-18
-3.22136e-18
-3.22771e-18
-3.16295e-18
-3.11241e-18
-3.11059e-18
-3.13872e-18
-3.13163e-18
-3.11889e-18
-3.1305e-18
-3.14005e-18
-3.1308e-18
-3.13569e-18
-3.13532e-18
-3.12593e-18
-3.15595e-18
-3.16185e-18
-3.11946e-18
-3.10598e-18
-3.01982e-18
-2.96475e-18
-2.92557e-18
-2.93055e-18
-2.93191e-18
-2.92805e-18
-2.91231e-18
-2.88922e-18
-2.89217e-18
-2.90787e-18
-2.86618e-18
-2.80256e-18
-2.80186e-18
-2.8103e-18
-2.80159e-18
-2.81202e-18
-2.8103e-18
-2.78578e-18
-2.77418e-18
-2.75482e-18
-2.75262e-18
-2.76093e-18
-2.77986e-18
-2.77034e-18
-2.65983e-18
-2.68643e-18
-2.70658e-18
-2.71061e-18
-2.63087e-18
-2.61627e-18
-2.61892e-18
-2.68983e-18
-2.64215e-18
-2.62612e-18
-2.62523e-18
-2.61477e-18
-2.56412e-18
-2.43096e-18
-2.39951e-18
-2.30874e-18
-2.28527e-18
-2.27313e-18
-2.24071e-18
-2.21195e-18
-2.19195e-18
-2.20256e-18
-2.27166e-18
-2.26824e-18
-2.26743e-18
-2.25028e-18
-2.2566e-18
-2.23422e-18
-2.22587e-18
-2.16815e-18
-2.22404e-18
-2.20566e-18
-2.25109e-18
-2.20775e-18
-2.23019e-18
-2.28817e-18
-2.27451e-18
-2.2629e-18
-2.25896e-18
-2.26268e-18
-2.26481e-18
-2.27756e-18
-2.28191e-18
-2.28014e-18
-2.25073e-18
-2.24851e-18
-2.23809e-18
-2.19327e-18
-2.17764e-18
-2.15679e-18
-2.1685e-18
-2.09509e-18
-2.09973e-18
-2.09422e-18
-2.18597e-18
-2.18877e-18
-2.11238e-18
-2.10471e-18
-1.98318e-18
-1.96453e-18
-1.87311e-18
-1.85387e-18
-1.95511e-18
-1.92176e-18
-2.09416e-18
-2.02169e-18
-2.02125e-18
-2.03384e-18
-2.05549e-18
-2.03627e-18
-2.06775e-18
-2.08807e-18
-2.086e-18
-2.08703e-18
-2.22175e-18
-2.19678e-18
-2.21208e-18
-2.19987e-18
-2.19386e-18
-2.05917e-18
-2.03311e-18
-2.12132e-18
-2.11368e-18
-2.11165e-18
-2.10501e-18
-2.07097e-18
-2.091e-18
-2.08972e-18
-2.07355e-18
-1.96244e-18
-1.98228e-18
-2.02457e-18
-1.93528e-18
-1.82443e-18
-1.92446e-18
-1.87529e-18
-1.82785e-18
-1.79742e-18
-1.65093e-18
-1.59254e-18
-1.57771e-18
-1.54585e-18
-1.48949e-18
-1.40878e-18
-1.39449e-18
-1.13606e-18
-9.99032e-19
-9.90175e-19
-1.00369e-18
-8.55514e-19
-8.53556e-19
-8.3581e-19
-8.57638e-19
-8.29415e-19
-9.77762e-19
-8.00966e-19
-7.73128e-19
-5.30904e-19
-4.85349e-19
-3.44769e-19
-3.49187e-19
-3.45168e-19
-3.05382e-19
-4.10768e-19
-3.63805e-19
-2.64891e-19
-2.24962e-19
-1.91032e-19
-9.28518e-20
-5.77293e-20
-8.93586e-20
-1.14297e-19
-7.33455e-20
-8.79881e-20
-7.95555e-20
-6.63232e-20
-1.02063e-19
-1.07401e-19
-1.26222e-19
)
;

boundaryField
{
    INLET
    {
        type            cyclic;
        value           nonuniform List<scalar> 
1025
(
-8.85637e-10
-2.67296e-09
-4.48499e-09
-6.3219e-09
-8.18423e-09
-1.00723e-08
-1.19865e-08
-1.39269e-08
-1.58944e-08
-1.78884e-08
-1.99113e-08
-2.19607e-08
-2.4039e-08
-2.61461e-08
-2.82824e-08
-3.04476e-08
-3.26434e-08
-3.48698e-08
-3.71262e-08
-3.94147e-08
-4.17331e-08
-4.40855e-08
-4.64695e-08
-4.88878e-08
-5.13384e-08
-5.38243e-08
-5.63382e-08
-5.88987e-08
-6.14798e-08
-6.41091e-08
-6.67737e-08
-6.94581e-08
-7.22097e-08
-7.49821e-08
-7.77911e-08
-8.0637e-08
-8.352e-08
-8.64596e-08
-8.94386e-08
-9.24372e-08
-9.54951e-08
-9.85934e-08
-1.01733e-07
-1.04913e-07
-1.08135e-07
-1.11422e-07
-1.14729e-07
-1.18079e-07
-1.21497e-07
-1.2496e-07
-1.28468e-07
-1.31996e-07
-1.35623e-07
-1.39242e-07
-1.42965e-07
-1.46737e-07
-1.50528e-07
-1.54368e-07
-1.58288e-07
-1.62259e-07
-1.66281e-07
-1.70356e-07
-1.74483e-07
-1.78663e-07
-1.82931e-07
-1.8722e-07
-1.91599e-07
-1.95998e-07
-2.00529e-07
-2.05041e-07
-2.09689e-07
-2.14317e-07
-2.19084e-07
-2.23913e-07
-2.2872e-07
-2.33715e-07
-2.38688e-07
-2.43812e-07
-2.48913e-07
-2.54168e-07
-2.59398e-07
-2.64834e-07
-2.70197e-07
-2.75773e-07
-2.81321e-07
-2.86989e-07
-2.92728e-07
-2.9854e-07
-3.04477e-07
-3.10437e-07
-3.1647e-07
-3.22634e-07
-3.28875e-07
-3.35195e-07
-3.41594e-07
-3.48131e-07
-3.54633e-07
-3.61333e-07
-3.68118e-07
-3.74927e-07
-3.81881e-07
-3.88922e-07
-3.96114e-07
-4.03266e-07
-4.10703e-07
-4.18034e-07
-4.25588e-07
-4.33304e-07
-4.40978e-07
-4.48815e-07
-4.56819e-07
-4.64778e-07
-4.73052e-07
-4.81281e-07
-4.89684e-07
-4.9819e-07
-5.06799e-07
-5.15512e-07
-5.24409e-07
-5.33335e-07
-5.42448e-07
-5.51672e-07
-5.61007e-07
-5.70454e-07
-5.80098e-07
-5.89773e-07
-5.99562e-07
-6.09554e-07
-6.19754e-07
-6.29897e-07
-6.40248e-07
-6.50812e-07
-6.61501e-07
-6.72221e-07
-6.83161e-07
-6.94227e-07
-7.05422e-07
-7.16843e-07
-7.28297e-07
-7.39981e-07
-7.51698e-07
-7.63751e-07
-7.75838e-07
-7.8806e-07
-8.00524e-07
-8.1302e-07
-8.2576e-07
-8.38641e-07
-8.51773e-07
-8.64825e-07
-8.78241e-07
-8.918e-07
-9.05504e-07
-9.19352e-07
-9.33344e-07
-9.4748e-07
-9.61879e-07
-9.76304e-07
-9.91117e-07
-1.00583e-06
-1.02094e-06
-1.03619e-06
-1.05146e-06
-1.06688e-06
-1.08269e-06
-1.09853e-06
-1.1145e-06
-1.13075e-06
-1.14714e-06
-1.16299e-06
-1.18021e-06
-1.19841e-06
-1.21397e-06
-1.23104e-06
-1.24825e-06
-1.26704e-06
-1.28306e-06
-1.30212e-06
-1.31985e-06
-1.3377e-06
-1.35566e-06
-1.37373e-06
-1.39346e-06
-1.41177e-06
-1.43018e-06
-1.45028e-06
-1.46891e-06
-1.48764e-06
-1.50645e-06
-1.52699e-06
-1.54765e-06
-1.56509e-06
-1.5876e-06
-1.6052e-06
-1.62793e-06
-1.64565e-06
-1.66858e-06
-1.68643e-06
-1.70955e-06
-1.72926e-06
-1.74902e-06
-1.77062e-06
-1.7923e-06
-1.81406e-06
-1.83405e-06
-1.85593e-06
-1.87786e-06
-1.898e-06
-1.92192e-06
-1.94214e-06
-1.96429e-06
-1.98649e-06
-2.00681e-06
-2.03102e-06
-2.05336e-06
-2.07377e-06
-2.09616e-06
-2.12058e-06
-2.14107e-06
-2.16558e-06
-2.18812e-06
-2.20866e-06
-2.23328e-06
-2.2559e-06
-2.27855e-06
-2.30329e-06
-2.3239e-06
-2.34869e-06
-2.37142e-06
-2.39629e-06
-2.41693e-06
-2.44184e-06
-2.46679e-06
-2.48961e-06
-2.51244e-06
-2.53527e-06
-2.5603e-06
-2.58537e-06
-2.60826e-06
-2.63337e-06
-2.65627e-06
-2.68143e-06
-2.70435e-06
-2.73181e-06
-2.75249e-06
-2.78001e-06
-2.80299e-06
-2.82827e-06
-2.85358e-06
-2.87659e-06
-2.90426e-06
-2.92731e-06
-2.9527e-06
-2.97812e-06
-3.00593e-06
-3.02904e-06
-3.05454e-06
-3.08006e-06
-3.10561e-06
-3.13118e-06
-3.15678e-06
-3.18484e-06
-3.21052e-06
-3.23622e-06
-3.26195e-06
-3.28771e-06
-3.31597e-06
-3.3418e-06
-3.36767e-06
-3.39606e-06
-3.42201e-06
-3.45049e-06
-3.47652e-06
-3.50258e-06
-3.53121e-06
-3.5599e-06
-3.5861e-06
-3.61489e-06
-3.64374e-06
-3.67008e-06
-3.69904e-06
-3.72806e-06
-3.75715e-06
-3.78369e-06
-3.81289e-06
-3.84216e-06
-3.87149e-06
-3.90088e-06
-3.93035e-06
-3.95988e-06
-3.98948e-06
-4.01915e-06
-4.04889e-06
-4.08137e-06
-4.10858e-06
-4.14123e-06
-4.17127e-06
-4.20139e-06
-4.23429e-06
-4.26457e-06
-4.29492e-06
-4.32809e-06
-4.35861e-06
-4.39196e-06
-4.42266e-06
-4.45619e-06
-4.48706e-06
-4.52078e-06
-4.55461e-06
-4.58575e-06
-4.61977e-06
-4.6539e-06
-4.68813e-06
-4.71965e-06
-4.75691e-06
-4.78862e-06
-4.82327e-06
-4.86087e-06
-4.89289e-06
-4.93073e-06
-4.96296e-06
-5.00103e-06
-5.03635e-06
-5.07178e-06
-5.10733e-06
-5.1459e-06
-5.18169e-06
-5.21759e-06
-5.25654e-06
-5.29563e-06
-5.32897e-06
-5.37125e-06
-5.40778e-06
-5.44443e-06
-5.48418e-06
-5.52406e-06
-5.56408e-06
-5.60126e-06
-5.64456e-06
-5.68201e-06
-5.72259e-06
-5.76333e-06
-5.8042e-06
-5.84523e-06
-5.8864e-06
-5.92772e-06
-5.97225e-06
-6.01082e-06
-6.05566e-06
-6.09759e-06
-6.14276e-06
-6.18501e-06
-6.22742e-06
-6.27308e-06
-6.31581e-06
-6.36181e-06
-6.40799e-06
-6.45121e-06
-6.49774e-06
-6.54129e-06
-6.59131e-06
-6.6352e-06
-6.68243e-06
-6.72984e-06
-6.77743e-06
-6.82521e-06
-6.87317e-06
-6.92131e-06
-6.97286e-06
-7.01817e-06
-7.0701e-06
-7.11901e-06
-7.17135e-06
-7.22065e-06
-7.27013e-06
-7.32308e-06
-7.37297e-06
-7.42633e-06
-7.4799e-06
-7.53039e-06
-7.58439e-06
-7.6386e-06
-7.69303e-06
-7.74768e-06
-7.79921e-06
-7.85763e-06
-7.91294e-06
-7.96847e-06
-8.02423e-06
-8.0802e-06
-8.13641e-06
-8.19623e-06
-8.2529e-06
-8.31321e-06
-8.37035e-06
-8.43114e-06
-8.48875e-06
-8.55004e-06
-8.60812e-06
-8.67336e-06
-8.73194e-06
-8.79423e-06
-8.85678e-06
-8.91959e-06
-8.98266e-06
-9.04598e-06
-9.10957e-06
-9.17342e-06
-9.24107e-06
-9.30546e-06
-9.37011e-06
-9.43859e-06
-9.5038e-06
-9.57284e-06
-9.64218e-06
-9.70822e-06
-9.77813e-06
-9.84472e-06
-9.91883e-06
-9.986e-06
-1.00607e-05
-1.01285e-05
-1.02038e-05
-1.02758e-05
-1.03444e-05
-1.04244e-05
-1.04936e-05
-1.05705e-05
-1.06477e-05
-1.07216e-05
-1.07957e-05
-1.08739e-05
-1.09525e-05
-1.10314e-05
-1.11106e-05
-1.11863e-05
-1.127e-05
-1.13464e-05
-1.14308e-05
-1.15117e-05
-1.15929e-05
-1.16783e-05
-1.17565e-05
-1.18464e-05
-1.19291e-05
-1.20121e-05
-1.20994e-05
-1.2187e-05
-1.22711e-05
-1.23633e-05
-1.24482e-05
-1.25412e-05
-1.26268e-05
-1.27206e-05
-1.28109e-05
-1.29015e-05
-1.29926e-05
-1.3088e-05
-1.31838e-05
-1.32761e-05
-1.33727e-05
-1.34658e-05
-1.35633e-05
-1.36652e-05
-1.37595e-05
-1.38582e-05
-1.39574e-05
-1.4057e-05
-1.41611e-05
-1.42616e-05
-1.43625e-05
-1.44679e-05
-1.45738e-05
-1.46761e-05
-1.47829e-05
-1.4886e-05
-1.49979e-05
-1.5102e-05
-1.52148e-05
-1.53198e-05
-1.54336e-05
-1.55437e-05
-1.56543e-05
-1.57695e-05
-1.58853e-05
-1.59974e-05
-1.61099e-05
-1.62315e-05
-1.6345e-05
-1.64676e-05
-1.65821e-05
-1.67015e-05
-1.68256e-05
-1.6946e-05
-1.70669e-05
-1.71927e-05
-1.73147e-05
-1.74416e-05
-1.75646e-05
-1.7697e-05
-1.78211e-05
-1.79502e-05
-1.80843e-05
-1.82101e-05
-1.83454e-05
-1.84767e-05
-1.86131e-05
-1.87457e-05
-1.88788e-05
-1.90215e-05
-1.91557e-05
-1.92951e-05
-1.94351e-05
-1.95757e-05
-1.9717e-05
-1.98634e-05
-2.00059e-05
-2.0149e-05
-2.02973e-05
-2.04463e-05
-2.05913e-05
-2.07415e-05
-2.08971e-05
-2.1044e-05
-2.11963e-05
-2.13539e-05
-2.15074e-05
-2.16617e-05
-2.18213e-05
-2.19816e-05
-2.21379e-05
-2.22996e-05
-2.24621e-05
-2.26252e-05
-2.27938e-05
-2.29536e-05
-2.31236e-05
-2.32945e-05
-2.34612e-05
-2.36335e-05
-2.38017e-05
-2.39804e-05
-2.415e-05
-2.43302e-05
-2.45063e-05
-2.46831e-05
-2.48607e-05
-2.50491e-05
-2.52232e-05
-2.54131e-05
-2.55989e-05
-2.57653e-05
-2.59828e-05
-2.61507e-05
-2.63701e-05
-2.65396e-05
-2.67098e-05
-2.69318e-05
-2.71548e-05
-2.73274e-05
-2.75007e-05
-2.77264e-05
-2.79531e-05
-2.81289e-05
-2.83574e-05
-2.85348e-05
-2.87129e-05
-2.89966e-05
-2.91765e-05
-2.93571e-05
-2.95912e-05
-2.98264e-05
-3.00627e-05
-3.02468e-05
-3.04849e-05
-3.06706e-05
-3.09106e-05
-3.11518e-05
-3.1394e-05
-3.15831e-05
-3.18273e-05
-3.20725e-05
-3.23188e-05
-3.25114e-05
-3.27596e-05
-3.30089e-05
-3.32593e-05
-3.35108e-05
-3.37634e-05
-3.39615e-05
-3.4216e-05
-3.45274e-05
-3.47284e-05
-3.49863e-05
-3.52452e-05
-3.55052e-05
-3.57664e-05
-3.60286e-05
-3.62352e-05
-3.65564e-05
-3.6822e-05
-3.70887e-05
-3.73565e-05
-3.76255e-05
-3.78956e-05
-3.82247e-05
-3.84393e-05
-3.8771e-05
-3.89875e-05
-3.93217e-05
-3.95989e-05
-3.98771e-05
-4.01565e-05
-4.04962e-05
-4.07189e-05
-4.10611e-05
-4.14049e-05
-4.16309e-05
-4.19773e-05
-4.22653e-05
-4.26146e-05
-4.28448e-05
-4.31967e-05
-4.35501e-05
-4.38444e-05
-4.41399e-05
-4.44976e-05
-4.47956e-05
-4.50948e-05
-4.54567e-05
-4.58203e-05
-4.61235e-05
-4.6428e-05
-4.67957e-05
-4.71652e-05
-4.74737e-05
-4.7846e-05
-4.81572e-05
-4.85325e-05
-4.89094e-05
-4.92246e-05
-4.96045e-05
-4.99224e-05
-5.03053e-05
-5.06898e-05
-5.10759e-05
-5.13994e-05
-5.1853e-05
-5.21795e-05
-5.2507e-05
-5.29658e-05
-5.32964e-05
-5.37587e-05
-5.40923e-05
-5.44927e-05
-5.48947e-05
-5.52984e-05
-5.57037e-05
-5.61107e-05
-5.64529e-05
-5.69296e-05
-5.73416e-05
-5.77553e-05
-5.81706e-05
-5.85876e-05
-5.90063e-05
-5.94267e-05
-5.99165e-05
-6.02725e-05
-6.07661e-05
-6.11935e-05
-6.16225e-05
-6.20533e-05
-6.25546e-05
-6.2989e-05
-6.34251e-05
-6.39323e-05
-6.43721e-05
-6.48136e-05
-6.52568e-05
-6.57717e-05
-6.62889e-05
-6.67378e-05
-6.71884e-05
-6.77115e-05
-6.81658e-05
-6.86929e-05
-6.91509e-05
-6.96822e-05
-7.02156e-05
-7.06794e-05
-7.12169e-05
-7.16844e-05
-7.2226e-05
-7.27698e-05
-7.33159e-05
-7.37911e-05
-7.43413e-05
-7.48936e-05
-7.54482e-05
-7.59313e-05
-7.64899e-05
-7.71249e-05
-7.76141e-05
-7.81794e-05
-7.8747e-05
-7.93168e-05
-7.98888e-05
-8.04631e-05
-8.10395e-05
-8.16182e-05
-8.21991e-05
-8.27823e-05
-8.33676e-05
-8.40316e-05
-8.46218e-05
-8.52142e-05
-8.58088e-05
-8.64057e-05
-8.70821e-05
-8.76837e-05
-8.83653e-05
-8.8894e-05
-8.95804e-05
-9.02696e-05
-9.08831e-05
-9.14989e-05
-9.21957e-05
-9.28953e-05
-9.35184e-05
-9.41438e-05
-9.4851e-05
-9.5561e-05
-9.61938e-05
-9.69892e-05
-9.75467e-05
-9.83477e-05
-9.89904e-05
-9.97164e-05
-0.000100445
-0.000101095
-0.000101911
-0.000102566
-0.000103387
-0.000104048
-0.000104793
-0.000105541
-0.000106291
-0.000107127
-0.000107801
-0.00010856
-0.000109405
-0.000110169
-0.000110937
-0.000111707
-0.000112565
-0.000113256
-0.00011412
-0.000114986
-0.000115771
-0.000116559
-0.000117349
-0.000118228
-0.00011911
-0.000119909
-0.000120798
-0.000121603
-0.000122498
-0.000123396
-0.00012421
-0.000125114
-0.000125934
-0.000126932
-0.000127758
-0.000128675
-0.000129596
-0.000130519
-0.000131446
-0.000132376
-0.000133221
-0.000134247
-0.000135187
-0.00013613
-0.000137077
-0.000138117
-0.00013898
-0.000140027
-0.000140987
-0.00014195
-0.000143008
-0.000143978
-0.000144951
-0.00014602
-0.000147092
-0.000148076
-0.000149063
-0.000150146
-0.000151233
-0.00015223
-0.000153324
-0.000154422
-0.000155429
-0.000156628
-0.000157643
-0.000158756
-0.000159872
-0.000160897
-0.000162115
-0.000163242
-0.000164373
-0.000165508
-0.000166647
-0.000167885
-0.000168935
-0.000170181
-0.000171334
-0.000172589
-0.00017375
-0.000174915
-0.000176181
-0.000177353
-0.000178529
-0.000179906
-0.00018109
-0.000182277
-0.000183568
-0.000184862
-0.00018616
-0.000187463
-0.00018867
-0.00018998
-0.000191395
-0.000192614
-0.000193936
-0.000195364
-0.000196594
-0.00019803
-0.000199267
-0.000200712
-0.000202161
-0.00020341
-0.000204868
-0.00020633
-0.000207694
-0.000209061
-0.000210536
-0.000212015
-0.000213395
-0.000214883
-0.000216271
-0.000217767
-0.000219372
-0.000220772
-0.000222281
-0.000223795
-0.000225313
-0.000226835
-0.000228361
-0.000229891
-0.000231426
-0.000233071
-0.000234615
-0.000236162
-0.000237821
-0.000239377
-0.000241045
-0.000242609
-0.000244286
-0.000245858
-0.000247544
-0.000249233
-0.000250818
-0.000252626
-0.000254219
-0.000256036
-0.000257638
-0.000259353
-0.000261073
-0.000262908
-0.000264637
-0.000266369
-0.000268106
-0.000269959
-0.000271704
-0.000273454
-0.000275431
-0.000277077
-0.000278951
-0.000280829
-0.000282712
-0.000284599
-0.000286377
-0.000288272
-0.000290172
-0.000292189
-0.000293983
-0.000295895
-0.000297925
-0.000299845
-0.000301769
-0.000303812
-0.000305744
-0.000307679
-0.000309734
-0.000311793
-0.00031374
-0.000315807
-0.000317878
-0.000319836
-0.000322031
-0.000323997
-0.0003262
-0.000328172
-0.000330383
-0.000332479
-0.00033458
-0.000336683
-0.000338909
-0.000341019
-0.000343251
-0.000345368
-0.000347608
-0.00034985
-0.000352096
-0.000354225
-0.000356477
-0.000358853
-0.00036099
-0.000363251
-0.000365636
-0.000367781
-0.000370172
-0.000372565
-0.000374839
-0.000377116
-0.000379517
-0.00038192
-0.000384204
-0.000386612
-0.000389022
-0.000391434
-0.000393725
-0.000396264
-0.000398682
-0.000401102
-0.000403647
-0.000406069
-0.000408493
-0.000411043
-0.000413469
-0.000416021
-0.000418449
-0.000421128
-0.000423558
-0.000426114
-0.00042867
-0.000431226
-0.000433909
-0.000436466
-0.000438898
-0.000441707
-0.000444264
-0.000446821
-0.000449504
-0.000452186
-0.000454741
-0.000457421
-0.000460229
-0.00046278
-0.000465458
-0.000468261
-0.000470808
-0.000473609
-0.000476408
-0.000479076
-0.000481871
-0.000484535
-0.000487325
-0.000490113
-0.000492768
-0.000495678
-0.000498456
-0.000501231
-0.000504002
-0.000506898
-0.000509661
-0.00051242
-0.000515304
-0.000518183
-0.000521058
-0.000523797
-0.000526791
-0.00052952
-0.000532503
-0.00053535
-0.000538191
-0.000541025
-0.000543983
-0.000546934
-0.000549748
-0.000552684
-0.000555613
-0.000558534
-0.000561447
-0.000564351
-0.000567247
-0.000570264
-0.000573141
-0.00057614
-0.000578997
-0.000581976
-0.000584943
-0.0005879
-0.000590714
-0.00059378
-0.000596701
-0.000599743
-0.000602508
-0.000605655
-0.000608525
-0.000611382
-0.000614488
-0.000617315
-0.00062026
-0.000623321
)
;
    }
    OUTLET
    {
        type            cyclic;
        value           nonuniform List<scalar> 
1025
(
8.85637e-10
2.67296e-09
4.48499e-09
6.3219e-09
8.18423e-09
1.00723e-08
1.19865e-08
1.39269e-08
1.58944e-08
1.78884e-08
1.99113e-08
2.19607e-08
2.4039e-08
2.61461e-08
2.82824e-08
3.04476e-08
3.26434e-08
3.48698e-08
3.71262e-08
3.94147e-08
4.17331e-08
4.40855e-08
4.64695e-08
4.88878e-08
5.13384e-08
5.38243e-08
5.63382e-08
5.88987e-08
6.14798e-08
6.41091e-08
6.67737e-08
6.94581e-08
7.22097e-08
7.49821e-08
7.77911e-08
8.0637e-08
8.352e-08
8.64596e-08
8.94386e-08
9.24372e-08
9.54951e-08
9.85934e-08
1.01733e-07
1.04913e-07
1.08135e-07
1.11422e-07
1.14729e-07
1.18079e-07
1.21497e-07
1.2496e-07
1.28468e-07
1.31996e-07
1.35623e-07
1.39242e-07
1.42965e-07
1.46737e-07
1.50528e-07
1.54368e-07
1.58288e-07
1.62259e-07
1.66281e-07
1.70356e-07
1.74483e-07
1.78663e-07
1.82931e-07
1.8722e-07
1.91599e-07
1.95998e-07
2.00529e-07
2.05041e-07
2.09689e-07
2.14317e-07
2.19084e-07
2.23913e-07
2.2872e-07
2.33715e-07
2.38688e-07
2.43812e-07
2.48913e-07
2.54168e-07
2.59398e-07
2.64834e-07
2.70197e-07
2.75773e-07
2.81321e-07
2.86989e-07
2.92728e-07
2.9854e-07
3.04477e-07
3.10437e-07
3.1647e-07
3.22634e-07
3.28875e-07
3.35195e-07
3.41594e-07
3.48131e-07
3.54633e-07
3.61333e-07
3.68118e-07
3.74927e-07
3.81881e-07
3.88922e-07
3.96114e-07
4.03266e-07
4.10703e-07
4.18034e-07
4.25588e-07
4.33304e-07
4.40978e-07
4.48815e-07
4.56819e-07
4.64778e-07
4.73052e-07
4.81281e-07
4.89684e-07
4.9819e-07
5.06799e-07
5.15512e-07
5.24409e-07
5.33335e-07
5.42448e-07
5.51672e-07
5.61007e-07
5.70454e-07
5.80098e-07
5.89773e-07
5.99562e-07
6.09554e-07
6.19754e-07
6.29897e-07
6.40248e-07
6.50812e-07
6.61501e-07
6.72221e-07
6.83161e-07
6.94227e-07
7.05422e-07
7.16843e-07
7.28297e-07
7.39981e-07
7.51698e-07
7.63751e-07
7.75838e-07
7.8806e-07
8.00524e-07
8.1302e-07
8.2576e-07
8.38641e-07
8.51773e-07
8.64825e-07
8.78241e-07
8.918e-07
9.05504e-07
9.19352e-07
9.33344e-07
9.4748e-07
9.61879e-07
9.76304e-07
9.91117e-07
1.00583e-06
1.02094e-06
1.03619e-06
1.05146e-06
1.06688e-06
1.08269e-06
1.09853e-06
1.1145e-06
1.13075e-06
1.14714e-06
1.16299e-06
1.18021e-06
1.19841e-06
1.21397e-06
1.23104e-06
1.24825e-06
1.26704e-06
1.28306e-06
1.30212e-06
1.31985e-06
1.3377e-06
1.35566e-06
1.37373e-06
1.39346e-06
1.41177e-06
1.43018e-06
1.45028e-06
1.46891e-06
1.48764e-06
1.50645e-06
1.52699e-06
1.54765e-06
1.56509e-06
1.5876e-06
1.6052e-06
1.62793e-06
1.64565e-06
1.66858e-06
1.68643e-06
1.70955e-06
1.72926e-06
1.74902e-06
1.77062e-06
1.7923e-06
1.81406e-06
1.83405e-06