/*--------------------------------*- C++ -*----------------------------------*\
| =========                 |                                                 |
| \\      /  F ield         | OpenFOAM: The Open Source CFD Toolbox           |
|  \\    /   O peration     | Version:  v1806                                 |
|   \\  /    A nd           | Web:      www.OpenFOAM.com                      |
|    \\/     M anipulation  |                                                 |
\*---------------------------------------------------------------------------*/
FoamFile
{
    version     2.0;
    format      ascii;
    class       volScalarField;
    location    0;
    object      rj_exp;
}
// * * * * * * * * * * * * * * * * * * * * * * * * * * * * * * * * * * * * * //

dimensions      [0 0 0 0 0 0 0];


internalField   nonuniform List<scalar>
1025
(
176.33383
529.60234
884.30582
1240.4425
1598.022
1957.0537
2317.5496
2679.5081
3042.9185
3407.8156
3774.1974
4142.0843
4511.4663
4882.3243
5254.6687
5628.5372
6003.8852
6380.7217
6759.0918
7139.0107
7520.4649
7903.4971
8288.1213
8674.3053
9062.0665
9451.3903
9842.2171
10234.594
10628.605
11024.198
11421.373
11820.198
12220.672
12622.729
13026.401
13431.667
13838.56
14247.123
14657.398
15069.378
15483.081
15898.493
16315.652
16734.449
17154.88
17577.056
18000.854
18426.298
18853.404
19282.134
19712.695
20145.015
20578.996
21014.837
21452.388
21891.857
22332.949
22775.934
23220.825
23667.532
24116.155
24566.766
25019.041
25473.011
25928.638
26386.069
26845.458
27306.603
27769.502
28234.274
28700.702
29169.085
29639.423
30111.527
30585.629
31061.775
31540.056
32020.127
32502.336
32986.684
33472.91
33960.837
34450.842
34943.089
35437.171
35933.443
36431.597
36931.866
37434.417
37939.314
38446.263
38954.919
39465.577
39978.299
40492.945
41009.899
41528.696
42049.615
42572.668
43097.509
43624.736
44154.008
44685.13
45218.604
45754.152
46291.934
46831.82
47373.767
47918.241
48464.415
49012.895
49563.638
50116.962
50672.724
51230.883
51790.903
52353.457
52918.549
53485.617
54055.369
54627.915
55202.562
55779.947
56360.074
56942.106
57526.591
58113.828
58703.748
59295.616
59889.973
60486.654
61085.739
61687.266
62291.189
62897.505
63506.251
64117.424
64731.059
65347.155
65965.707
66586.71
67210.202
67836.221
68464.721
69095.74
69729.272
70365.161
71003.598
71644.618
72288.176
72934.267
73582.971
74234.282
74888.196
75544.539
76203.477
76865.044
77529.414
78196.447
78866.14
79538.486
80213.565
80891.33
81571.735
82254.859
82940.737
83629.324
84320.655
85014.564
85711.044
86410.254
87112.802
87818.112
88525.768
89236.176
89949.737
90666.042
91385.081
92107.027
92831.7
93559.331
94289.919
95023.87
95760.934
96500.452
97243.073
97988.536
98736.686
99487.779
100241.95
100999.61
101759.65
102522.77
103288.94
104058.16
104830.15
105605.18
106383.24
107164.33
107948.84
108735.98
109526.12
110319.68
111116.63
111916.9
112720.16
113526.48
114335.78
115148.45
115964.49
116783.48
117605.84
118431.14
119260.14
120092.87
120928.17
121766.03
122607.6
123452.49
124300.67
125152.94
126008.09
126866.54
127728.65
128594.05
129463.1
130335
131210.15
132088.94
132971.37
133857.03
134745.91
135638.36
136534.41
137434.11
138337.02
139243.51
140154.44
141068.94
141987
142908.63
143833.8
144762.52
145695.17
146631.86
147572.58
148517.21
149465.35
150417.39
151372.93
152332.35
153295.65
154262.97
155234.71
156211.25
157191.65
158175.5
159163.18
160154.11
161148.26
162145.62
163146.55
164151.65
165161.15
166175.05
167192.72
168213.88
169238.54
170266.93
171299.44
172335.38
173375.41
174419.53
175467.34
176519.22
177575.55
178635.92
179700.33
180769.16
181842.01
182918.88
184000.14
185085.77
186175.39
187268.22
188365.4
189466.92
190572.77
191683.75
192799.04
193917.81
195040.87
196169.07
197301.91
198438.16
199577.79
200722.05
201870.53
203023.62
204181.29
205342.24
206507.76
207677.84
208852.46
210030.66
211213.38
212401.58
213594.29
214791.86
215993.92
217199.43
218408.75
219621.84
220838.31
222059.57
223286.67
224518.17
225754.79
226996.15
228242.25
229491.95
230746.36
232005.83
233269.99
234537.65
235809.16
237085.66
238368.02
239656.59
240950.49
242249.02
243552.51
244861.31
246174.68
247493
248816.58
250145.44
251479.18
252818.17
254162.39
255511.47
256867.15
258228.03
259594.1
260965.34
262341.76
263723.68
265112.22
266505.89
267905.05
269309.67
270719.75
272136.46
273558.61
274986.18
276417.57
277854.7
279297.2
280743.42
282194.99
283652.24
285115.17
286583.39
288057.26
289536.76
291023.64
292517.92
294019.61
295529.06
297044.1
298562.87
300087.55
301618.13
303154.58
304696.56
306242.43
307794.14
309351.66
310915.32
312484.77
314060
315641.32
317228.73
318822.2
320421.4
322028.79
323644.73
325266.69
326894.67
328530.89
330173.09
331821.63
333476.47
335137.6
336805.01
338478.69
340158.6
341844.74
343537.1
345236
346943.9
348660.48
350383.56
352113.15
353849.2
355591.73
357340.7
359096.09
360858.23
362627.1
364402.35
366184.3
367972.92
369765.39
371564.83
373370.87
375183.52
376999.82
378823
380653.04
382489.93
384333.64
386184.16
388044.89
389912.08
391786.36
393667.72
395555.8
397451.25
399353.74
401266.19
403185.65
405112.41
407046.46
408987.77
410936
412891.46
414854.13
416823.99
418801.34
420785.85
422777.8
424776.87
426787.08
428805.02
430830.03
432858.55
434894.74
436938.23
438985.37
441040.09
443102.35
445172.15
447253.55
449342.77
451439.47
453543.62
455655.53
457775.5
459907.52
462047.24
464194.65
466349.71
468513.07
470684.34
472863.22
475049.97
477239.9
479437.99
481644.17
483853.32
486071
488295.54
490528.57
492768.06
495014.47
497269.61
499534.99
501808.56
504091.32
506381.69
508681.53
510990.54
513306.83
515634.52
517968.87
520309.54
522658.78
525015.43
527382.31
529754.79
532134.83
534524.78
536922.25
539326.88
541739.55
544158.38
546582.7
549013.06
551452.21
553897.59
556349.47
558809.04
561277.27
563754.12
566239.2
568731.13
571231.21
573737.05
576251.94
578775.84
581306.33
583846.48
586395.54
588951.32
591514.08
594085.2
596662.14
599249.59
601847.08
604453.55
607068.19
609689.22
612320.97
614963.91
617617.83
620277.92
622944.61
625619.76
628305.27
630996.67
633698.9
636413.95
639139.26
641874.24
644621.17
647380.05
650151.47
652936.92
655727.41
658529.21
661341.69
664163.88
666991.09
669828.22
672677.79
675538.84
678410.01
681289.01
684182.69
687082.68
689986.46
692901.72
695825.36
698760.42
701706.85
704659.72
707624.96
710598.98
713587.49
716578.99
719586.06
722607.12
725633.75
728665.85
731707.87
734754.69
737808.33
740876.83
743958.18
747055.16
750165.82
753291.31
756423.99
759568.71
762720.48
765877.98
769052.71
772239.59
775433.26
778632.34
781840.79
785063.79
788293.29
791529.2
794782.29
798043.02
801318.17
804604.96
807906.25
811219.23
814549.3
817895.19
821257.11
824629.02
828007.87
831402.52
834806.94
838225.99
841662.38
845118.82
848589.54
852066.66
855548.48
859038.05
862537.94
866050.29
869578.37
873120.51
876670.02
880227.75
883799.45
887376.53
890959.74
894558.57
898173.03
901804.8
905437.84
909077.42
912729.69
916394.57
920067.58
923748.62
927444.66
931153.07
934869.28
938595.79
942332.5
946078.74
949839.01
953613.8
957400.5
961198.56
965010.47
968836.66
972674.53
976524.01
980382.9
984251.12
988133.25
992026.71
995929.23
999842.96
1003767.8
1007706.2
1011655.8
1015614
1019585.5
1023570.3
1027563.3
1031567
1035581.4
1039606.2
1043643.9
1047694.4
1051757.6
1055833.5
1059921.9
1064022.8
1068133.7
1072257
1076397.6
1080550.3
1084715.2
1088892.2
1093081.1
1097282
1101497
1105723.8
1109962.3
1114214.7
1118478.6
1122754
1127043.1
1131348.7
1135665.6
1139992.9
1144333.6
1148685.3
1153050.9
1157429.6
1161823.7
1166230.8
1170648.4
1175078.8
1179521.9
1183974.4
1188439.4
1192916.8
1197408.8
1201916.4
1206436.2
1210964.6
1215504.9
1220059.5
1224628
1229204.7
1233789.5
1238384.3
1242992.8
1247612.5
1252243.4
1256889.8
1261549.5
1266220
1270903.5
1275600
1280309.2
1285031.1
1289765.7
1294512.7
1299272.1
1304047.8
1308839.8
1313646.2
1318470.8
1323311.5
1328168.3
1333036.8
1337919.2
1342815.2
1347720.4
1352636.9
1357569
1362521
1367486.1
1372462
1377450.9
1382454.7
1387471.1
1392498
1397537.3
1402590.9
1407656.8
1412736.9
1417828.8
1422932.6
1428050.2
1433179.3
1438316.9
1443465.8
1448627.9
1453803.2
1458991.4
1464192.4
1469398.8
1474617.7
1479849.1
1485094.7
1490352.5
1495620.3
1500902
1506203
1511515.7
1516834.1
1522165.8
1527508.7
1532862.7
1538225.5
1543595.1
1548975.3
1554371.9
1559786.9
1565215.9
1570650.7
1576091.1
1581543
1587006.5
1592483.1
1597970.9
1603469.7
1608972.7
1614488.3
1620023
1625568.1
1631125.2
1636694.2
1642275.1
1647860.5
1653448.4
1659047.5
1664659.5
1670282.4
1675915.9
1681561.8
1687210.6
1692869.5
1698540.2
1704220.7
1709912.5
1715615.6
1721327.9
1727051.1
1732786.7
1738532.8
1744287.3
1750060.1
1755844.5
1761638.7
1767442.4
1773257.2
1779081.2
1784915.9
1790761.2
1796614.9
1802478.8
1808350.9
1814223.8
1820107.9
1826001.2
1831894.5
1837787.5
1843690.7
1849602.2
1855521.7
1861450.8
1867389.2
1873336.7
1879291.3
1885254.6
1891236
1897223.9
1903221.5
1909228.4
1915241.2
1921261.3
1927290
1933327.1
1939372.4
1945424
1951481.6
1957548.2
1963611.3
1969679.7
1975767
1981871.8
1987993.7
1994121.5
2000255.1
2006397.2
2012544.4
2018685.1
2024821.9
2030964.4
2037110.9
2043262.6
2049420.8
2055571.5
2061726.6
2067885.7
2074048.5
2080217.7
2086391.5
2092568.2
2098748.8
2104933.2
2111120.9
2117311.7
2123505.3
2129701.3
2135900.9
2142103.7
2148308.1
2154528.5
2160751.3
2166976.1
2173202.5
2179444.2
2185687
2191944.6
2198218.3
2204492.2
2210767.1
2217057.5
2223348.3
2229624.4
2235898.8
2242172.5
2248461.6
2254750.7
2261038
2267323.2
2273607.1
2279889.3
2286184.2
2292494
2298801.1
2305103.9
2311404.4
2317702.2
2323997
2330287
2336571.8
2342852.2
2349129.1
2355417.9
2361717.3
2368011.8
2374301.2
2380583.6
2386859.9
2393147.6
2399427
2405680.6
2411927.4
2418165.6
2424394.6
2430596.5
2436788.2
2442989.5
2449180.9
2455342.4
2461492.9
2467651.5
2473799.1
2479914.1
2486016
2492105.2
2498181.2
2504264
2510353.1
2516427.5
2522487.7
2528532.9
2534561.7
2540573.4
2546569.4
2552526.3
2558464.3
2564362.5
2570241.5
2576122.8
2581985.4
2587827.8
2593648.4
2599447.5
2605248.4
2611026.5
2616757.6
2622465.4
2628149
2633831
2639511.6
2645167.1
2650795.8
2656397.9
2661972.5
2667518.1
2673034.8
2678521.7
2683978.1
2689403.2
2694822.7
2700210.2
2705564
2710857.7
2716090.2
2721287.8
2726449.5
2731573.1
2736659.1
2741710.1
2746712.7
2751663.7
2756574.1
2761433.8
2766247.3
2771009.3
2775712.2
2780366
2784973.6
2789536.3
2794041.4
2798486
2802880.1
2807228.8
2811527.9
2815770.3
2819955.4
2824081.5
2828141.7
2832153.9
2836100.9
2839975.2
2843791.6
2847549
2851239.2
2854861.5
2858405.1
2861898.1
2865338.8
2868703.3
2872006.8
2875241.3
2878399
2881488.4
2884487.5
2887408.8
2890261.4
2893033.2
2895733
2898359.8
2900894.3
2903338.4
2905683.3
2907952.2
2910143.8
2912227.6
2914201.6
2916063.8
2917812.3
2919478.4
2921056.8
2922549.2
2923924
2925171.5
2926308.5
2927336.7
2928265.5
2929066
2929747.4
2930291.9
2930712.8
2930991.9
2931122.9
)
;

boundaryField
{
INLET
{
    type            cyclic;
}
OUTLET
{
    type            cyclic;
}
WALL
{
    type            fixedValue;
    value           uniform 0;
}
CENTER
{
    type            symmetryPlane;
}
frontAndBackPlanes
{
    type            empty;
}
}


// ************************************************************************* //

