/*--------------------------------*- C++ -*----------------------------------*\
| =========                 |                                                 |
| \\      /  F ield         | OpenFOAM: The Open Source CFD Toolbox           |
|  \\    /   O peration     | Version:  v1806                                 |
|   \\  /    A nd           | Web:      www.OpenFOAM.com                      |
|    \\/     M anipulation  |                                                 |
\*---------------------------------------------------------------------------*/
FoamFile
{
    version     2.0;
    format      ascii;
    class       volScalarField;
    location    0;
    object      rj_imp;
}
// * * * * * * * * * * * * * * * * * * * * * * * * * * * * * * * * * * * * * //

dimensions      [0 0 0 0 0 0 0];


internalField   nonuniform List<scalar>
1025
(
169.98062
510.50422
852.39412
1195.6484
1540.2764
1886.2868
2233.6911
2582.4877
2932.6954
3284.3148
3637.3398
3991.789
4347.6519
4704.9596
5063.7259
5423.931
5785.595
6148.723
6513.2814
6879.2827
7246.703
7615.5814
7985.9277
8357.7965
8731.2067
9106.1236
9482.4692
9860.2761
10239.601
10620.364
11002.671
11386.42
11771.737
12158.693
12547.136
12937.192
13328.86
13722.151
14117.069
14513.572
14911.655
15311.42
15712.805
16115.829
16520.404
16926.547
17334.252
17743.448
18154.293
18566.88
18981.025
19396.815
19814.343
20233.666
20654.784
21077.784
21502.565
21928.93
22357.044
22787.012
23218.734
23652.31
24087.464
24524.258
24962.984
25403.385
25845.608
26289.457
26734.968
27182.298
27631.236
28082.073
28534.808
28989.26
29445.655
29904.036
30364.071
30825.944
31289.504
31754.796
32222.118
32691.357
33162.408
33635.262
34110.174
34586.992
35065.982
35546.742
36029.425
36514.088
37000.443
37488.773
37979.307
38471.468
38965.834
39462.116
39960.539
40460.759
40962.851
41467.269
41973.943
42482.623
42993.193
43505.455
44020.06
44536.458
45054.6
45574.517
46096.57
46620.967
47147.876
47676.649
48207.763
48741.35
49276.826
49814.872
50355.493
50898.121
51442.597
51989.01
52537.851
53088.858
53642.027
54197.878
54756.138
55316.7
55879.301
56444.421
57011.917
57581.631
58153.519
58727.658
59304.082
59882.627
60463.408
61046.452
61631.747
62219.326
62809.186
63401.32
63995.725
64592.299
65191.214
65792.424
66395.963
67001.828
67610.013
68220.553
68833.484
69448.912
70066.679
70686.862
71309.455
71934.452
72561.848
73191.639
73823.859
74458.333
75095.092
75734.303
76376.134
77020.484
77667.292
78316.497
78968.171
79622.346
80278.978
80938.294
81600.328
82264.683
82931.512
83601.395
84273.985
84948.681
85625.863
86305.917
86988.449
87673.669
88361.743
89052.276
89745.26
90440.461
91138.487
91839.334
92542.606
93248.684
93957.561
94668.844
95382.52
96098.942
96818.458
97540.292
98264.822
98991.777
99721.146
100453.19
101187.89
101925.25
102665.26
103408.29
104153.58
104901.49
105652.39
106406.59
107163.38
107923.08
108685.73
109450.97
110219.16
110990.29
111763.97
112540.58
113320.05
114102.43
114888.09
115676.57
116467.47
117261.48
118058.62
118858.51
119661.53
120466.92
121274.67
122085.14
122898.32
123714.58
124533.51
125355.13
126179.78
127007.46
127837.78
128670.74
129507.07
130346.37
131188.29
132032.8
132880.69
133732.31
134586.87
135443.9
136303.84
137166.61
138032.05
138900.49
139771.63
140645.48
141522.39
142401.98
143284.6
144169.88
145058.16
145949.43
146842.82
147739.16
148638.79
149541.37
150446.52
151354.56
152264.95
153177.68
154093.26
155012.03
155933.99
156858.77
157786.36
158716.73
159650.1
160586.22
161524.61
162465.77
163409.79
164356.66
165306.99
166259.81
167215.43
168174.17
169135.68
170099.94
171067.29
172037.35
173010.11
173986.57
174966.72
175949.51
176934.95
177923.34
178913.96
179907.5
180903.94
181903.27
182904.68
183907.66
184912.4
185919.57
186929.28
187941.52
188956.57
189974.1
190994.41
192017.49
193042.98
194071.18
195102.08
196135.65
197171.05
198209.08
199249.71
200292.93
201339.03
202387.67
203438.83
204493.69
205551.34
206610.55
207672.02
208734.67
209798.06
210863.68
211931.65
213001.95
214075.54
215152.37
216231.78
217313.44
218397.32
219483.69
220572.56
221663.58
222757.05
223853.21
224951.42
226052
227155.22
228260.41
229367.85
230476.79
231587.18
232697.22
233806.36
234915.56
236027.37
237141.23
238257.1
239373.86
240491.48
241611.06
242732.86
243856.53
244983.21
246112.02
247242.92
248375.88
249510.61
250647.34
251784.82
252924.25
254067.11
255211.82
256357.08
257501.23
258641.47
259779.25
260917.19
262056.79
263198.05
264340.91
265485.37
266632.69
267783.11
268935.04
270088.46
271243.57
272401.71
273562.87
274726.76
275893.63
277063.43
278236.19
279410.71
280586.5
281759.09
282924.28
284086.36
285249.76
286414.24
287578.53
288744.29
289911.26
291079.41
292248.67
293419.02
294590.68
295763.6
296936.24
298108.59
299282.13
300456.75
301632.43
302807.62
303982.54
305153.24
306312.83
307464.41
308616.07
309768.69
310922.19
312076.51
313231.62
314387.78
315543.29
316699.49
317856.55
319014.49
320173.32
321333.19
322493.85
323655.21
324817.28
325981.99
327145.45
328297.32
329436.72
330573.76
331711.65
332849.95
333989.02
335128.84
336267.42
337406.91
338548.82
339692.93
340837.66
341983.09
343129.15
344275.93
345423.23
346571.19
347719.7
348860.45
349982.75
351092.41
352200.35
353308.74
354419.56
355531.07
356642.93
357753.4
358864.5
359977.93
361093.82
362210.22
363327.15
364444.53
365562.31
366680.72
367801.42
368912.31
370000.71
371074.43
372146.01
373218.09
374290.69
375363.69
376439.31
377517.34
378595.6
379674.42
380753.7
381833.49
382913.81
383994.43
385073.49
386151.13
387222.34
388272.61
389301.22
390322.69
391344.78
392369.36
393394.36
394417.82
395441.89
396468.4
397497.43
398529.05
399563.24
400597.73
401630.62
402664.01
403697.94
404720.3
405712.91
406686.72
407655.49
408622.76
409590.65
410557.13
411524.15
412491.68
413459.84
414428.6
415397.82
416367.68
417337.95
418308.75
419282.22
420245.52
421182.03
422094.68
423002.2
423910.49
424819.35
425726.85
426634.95
427545.76
428459.36
429373.53
430288.25
431203.63
432121.78
433042.52
433962.32
434864.47
435736.73
436593.98
437452.1
438311.04
439168.64
440027
440888.23
441752.24
442616.92
443482.23
444348.28
445215.28
446082.99
446950.59
447801.3
448619.31
449421.71
450224.94
451031.06
451840.04
452649.82
453458.49
454266.03
455074.38
455883.7
456693.81
457506.59
458322.39
459130.76
459915.01
460676.75
461430.91
462186.11
462943.37
463703.51
464465.42
465228.37
465991.59
466755.7
467521.33
468289.81
469061.19
469826.9
470569.78
471288.16
471998.09
472708.19
473419.15
474131.61
474845.55
475560.36
476274.16
476988.73
477705.82
478424.3
479144.22
479854.92
480538.73
481204.57
481867.96
482532.15
483197.03
483863.13
484530.4
485198.93
485868.8
486539.38
487210.54
487883.42
488549.57
489195.35
489820.83
490440.48
491061.28
491683.31
492305.87
492929.53
493554.86
494182.96
494812.01
495440.3
496069.7
496690.78
497288.95
497870.58
498449.37
499029.02
499609.94
500191.9
500773.03
501355.5
501938.94
502523.36
503111.27
503696.5
504266.17
504815.12
505356.06
505897.76
506440.32
506982.88
507526.59
508072.81
508621.94
509172.17
509723.1
510272.96
510811.97
511332.33
511843.71
512356.06
512869.99
513385
513902.6
514422.99
514944.44
515467.22
515991.14
516511.24
517016.29
517505.42
517989.74
518473.75
518957.18
519441.84
519927.68
520414.12
520901.71
521390.52
521880.34
522359.37
522818.17
523267.15
523717.23
524168.31
524620.44
525073.4
525529
525987.49
526446.99
526907.53
527360.79
527797.68
528226
528656.42
529087.74
529519.96
529953.46
530386.5
530820.4
531255.39
531690.68
532117.66
532530.4
532937.11
533344.57
533752.87
534162.37
534573.17
534984.97
535397.62
535811.39
536221.77
536621.24
537012.8
537402.39
537793.14
538184.78
538577.35
538970.94
539365.5
539761.14
540154.18
540539.09
540913.76
541285.06
541657.38
542030.51
542405.88
542784.03
543164.82
543546.39
543926.9
544300.25
544664.29
545025.12
545386.97
545749.82
546113.68
546478.44
546842.58
547206.35
547568.03
547921.8
548267.13
548610.91
548957.19
549306.02
549655.81
550006.47
550358.05
550710.36
551059.6
551399.91
551736.54
552074.2
552412.81
552752.27
553092.58
553435.46
553779.4
554120.56
554454.12
554783.15
555112.33
555440.87
555770.42
556100.85
556432.26
556766.2
557097.92
557423.13
557743.93
558064.57
558386.15
558708.87
559033.93
559361.26
559689.72
560015.64
560335.03
560651.1
560967.74
561285.35
561603.89
561923.41
562243.91
562564.42
562881.3
563193.02
563503.05
563812.37
564122.67
564434.05
564746.38
565059.65
565372.67
565682.17
565988.68
566295.58
566601.89
566907.52
567214.15
567521.76
567828.68
568133.5
568434.71
568735.42
569037.27
569338.53
569640.66
569945.31
570249.16
570550.28
570848.84
571146.04
571443.79
571743.02
572043.65
572344.82
572643.11
572939.19
573233.01
573527.15
573821.86
574116.37
574412.28
574709.66
575007.37
575301.09
575593.56
575886.52
576180.05
576474.07
576768.61
577064.64
577360.15
577653.38
577947.13
578242.39
578537.28
578833.58
579131.37
579425.25
579714.37
580003.08
580293.22
580583.92
580874.19
581165.02
581456.42
581745.62
582032.7
582320.31
582608.46
582897.14
583187.19
583478.71
583770
584059.17
584347.94
584638.18
584928.95
585221.12
585513.85
585801.64
586087.42
586373.67
586661.29
586949.49
587238.21
587526.54
587812.79
588095.91
588378.65
588662.75
588949.08
589235.88
589520.67
589802.56
590084.06
590366.94
590651.18
590935.93
591220.34
591503.55
591784.72
592065.57
592347.78
592631.32
592916.22
593199.95
593480.83
593761.37
594042.43
594324
594606.89
594889.5
595170.08
595450.35
595731.13
596011.59
596293.39
596576.51
596857.65
597136.84
597416.55
597694.39
597972.71
598253.93
598533.21
598808.09
599083.51
599360.22
599638.19
599918.37
600196.61
600473.74
600750.56
601027.86
601306.5
601584.87
601861.33
602136.63
602409.86
602681.76
602951.44
603220.02
603489.39
603757.63
604025.55
604293.97
604563.63
604832.97
605099.68
605365.26
605632.11
605899.44
606166.46
606431.62
606694.92
606958.7
607223.73
607489.23
607752.89
608017.7
608282.23
608546.49
608812.01
609078.08
609340.77
609601.63
609863.76
610126.45
610385.67
610643.05
610898.65
611153.97
611409.74
611662.71
611913.88
612163.23
612412.28
612657.64
612902.65
613146.6
613392.24
613636.83
613881.85
614126.57
614368.8
614609.22
614849.36
615085.52
615321.34
615559.1
615798.1
616040.6
616287.47
616532.64
616774.56
617014.75
617250.85
617487.47
617723.15
617954.84
618184.77
618411.16
618637.31
618865.11
619088.95
619311.82
619535.24
619757.68
619976.17
620186.42
620397.07
620608.96
620817.62
621020.88
621222.41
621425.1
621626.06
621821.62
622013.98
622202.05
622384.23
622561.79
622734.76
622906.53
623083.43
623257.1
623424.73
623589.13
623758.86
623926.1
624087.26
624240.08
624387.16
624525.64
624652.33
624775.03
624897.33
625016.17
625127.94
625241.05
625353.21
625461.88
625563.99
625661.43
625757.13
625848.63
625932.37
626011.4
626095
626173.72
626238.85
626299.69
626363.88
626421.88
626472.77
626525.88
626574
626613.48
626646.98
626674.31
626695.72
626711.76
626728.37
626747.58
626757.2
626765.89
)
;

boundaryField
{
INLET
{
    type            cyclic;
}
OUTLET
{
    type            cyclic;
}
WALL
{
    type            fixedValue;
    value           uniform 0;
}
CENTER
{
    type            symmetryPlane;
}
frontAndBackPlanes
{
    type            empty;
}
}


// ************************************************************************* //

