/*--------------------------------*- C++ -*----------------------------------*\
| =========                 |                                                 |
| \\      /  F ield         | OpenFOAM: The Open Source CFD Toolbox           |
|  \\    /   O peration     | Version:  v1806                                 |
|   \\  /    A nd           | Web:      www.OpenFOAM.com                      |
|    \\/     M anipulation  |                                                 |
\*---------------------------------------------------------------------------*/
FoamFile
{
    version     2.0;
    format      ascii;
    class       volSymmTensorField;
    location    "10000";
    object      RS_DNS;
}
// * * * * * * * * * * * * * * * * * * * * * * * * * * * * * * * * * * * * * //

dimensions      [0 2 -2 0 0 0 0];


internalField   nonuniform List<symmTensor> 
1025
(
(2.05878e-08 -1.20036e-12 -3.18015e-12 1.34042e-15 8.44376e-16 6.10549e-09)
(6.18604e-08 -3.60674e-12 -9.55542e-12 4.02756e-15 2.5371e-15 1.83452e-08)
(2.56429e-07 -4.80479e-11 -4.01747e-11 1.88386e-13 3.38112e-14 7.56464e-08)
(4.52036e-07 -9.2732e-11 -7.09576e-11 3.73759e-13 6.52563e-14 1.33253e-07)
(6.48563e-07 -1.37626e-10 -1.01885e-10 5.60003e-13 9.68491e-14 1.91131e-07)
(8.46713e-07 -1.83284e-10 -1.33075e-10 7.53201e-13 1.2898e-13 2.49482e-07)
(1.3736e-06 -4.88759e-10 -2.19096e-10 3.80206e-12 3.43874e-13 4.02459e-07)
(1.90298e-06 -7.95671e-10 -3.05521e-10 6.86526e-12 5.59779e-13 5.56156e-07)
(2.43484e-06 -1.10403e-09 -3.92354e-10 9.94289e-12 7.767e-13 7.10576e-07)
(2.9692e-06 -1.41383e-09 -4.79594e-10 1.3035e-11 9.94641e-13 8.65722e-07)
(3.50608e-06 -1.7251e-09 -5.67246e-10 1.61416e-11 1.21361e-12 1.0216e-06)
(4.04549e-06 -2.03783e-09 -6.55311e-10 1.92629e-11 1.43361e-12 1.17821e-06)
(4.58744e-06 -2.35203e-09 -7.43789e-10 2.23989e-11 1.65464e-12 1.33556e-06)
(5.51134e-06 -3.32963e-09 -9.01808e-10 4.0205e-11 2.34001e-12 1.59873e-06)
(6.63856e-06 -4.65897e-09 -1.09682e-09 6.57808e-11 3.27157e-12 1.91824e-06)
(7.77108e-06 -5.99456e-09 -1.29276e-09 9.14769e-11 4.2075e-12 2.23926e-06)
(8.90893e-06 -7.33643e-09 -1.48961e-09 1.17294e-10 5.14784e-12 2.56178e-06)
(1.00521e-05 -8.68463e-09 -1.68739e-09 1.43233e-10 6.09262e-12 2.88583e-06)
(1.12007e-05 -1.00392e-08 -1.8861e-09 1.69293e-10 7.04184e-12 3.21141e-06)
(1.23548e-05 -1.14001e-08 -2.08575e-09 1.95477e-10 7.99554e-12 3.53851e-06)
(1.35142e-05 -1.27674e-08 -2.28634e-09 2.21784e-10 8.95372e-12 3.86716e-06)
(1.46791e-05 -1.41412e-08 -2.48787e-09 2.48214e-10 9.9164e-12 4.19735e-06)
(1.58494e-05 -1.55214e-08 -2.69035e-09 2.74769e-10 1.08836e-11 4.52909e-06)
(1.70253e-05 -1.69082e-08 -2.89379e-09 3.01449e-10 1.18554e-11 4.8624e-06)
(1.85382e-05 -1.93891e-08 -3.16633e-09 3.69628e-10 1.35797e-11 5.28361e-06)
(2.06503e-05 -2.38243e-08 -3.56188e-09 5.12026e-10 1.66478e-11 5.86099e-06)
(2.27722e-05 -2.82802e-08 -3.95928e-09 6.55089e-10 1.97304e-11 6.44107e-06)
(2.49042e-05 -3.27572e-08 -4.35856e-09 7.98827e-10 2.28275e-11 7.02389e-06)
(2.70461e-05 -3.72552e-08 -4.75971e-09 9.43241e-10 2.59391e-11 7.60945e-06)
(2.91981e-05 -4.17743e-08 -5.16274e-09 1.08833e-09 2.90653e-11 8.19774e-06)
(3.13603e-05 -4.63149e-08 -5.56769e-09 1.23411e-09 3.22064e-11 8.78884e-06)
(3.35326e-05 -5.08765e-08 -5.97451e-09 1.38057e-09 3.5362e-11 9.38268e-06)
(3.57151e-05 -5.54597e-08 -6.38326e-09 1.52771e-09 3.85325e-11 9.97932e-06)
(3.79081e-05 -6.00649e-08 -6.79398e-09 1.67557e-09 4.17183e-11 1.05788e-05)
(4.01114e-05 -6.46917e-08 -7.20661e-09 1.82412e-09 4.49191e-11 1.11812e-05)
(4.23249e-05 -6.934e-08 -7.62117e-09 1.97336e-09 4.81347e-11 1.17863e-05)
(4.45487e-05 -7.40099e-08 -8.03765e-09 2.12329e-09 5.13652e-11 1.23942e-05)
(4.6783e-05 -7.87018e-08 -8.45609e-09 2.27393e-09 5.4611e-11 1.3005e-05)
(4.90281e-05 -8.34163e-08 -8.87655e-09 2.42529e-09 5.78724e-11 1.36187e-05)
(5.12836e-05 -8.81529e-08 -9.29898e-09 2.57737e-09 6.1149e-11 1.42354e-05)
(5.47303e-05 -9.94893e-08 -1.00041e-08 3.11204e-09 6.87698e-11 1.51357e-05)
(5.8409e-05 -1.12081e-07 -1.07639e-08 3.71899e-09 7.72173e-11 1.60915e-05)
(6.21051e-05 -1.24731e-07 -1.15273e-08 4.32881e-09 8.57046e-11 1.70519e-05)
(6.58185e-05 -1.37442e-07 -1.22942e-08 4.94149e-09 9.42318e-11 1.80168e-05)
(6.95492e-05 -1.50211e-07 -1.30648e-08 5.55704e-09 1.02799e-10 1.89862e-05)
(7.32978e-05 -1.63042e-07 -1.3839e-08 6.17552e-09 1.11407e-10 1.99602e-05)
(7.70641e-05 -1.75933e-07 -1.46168e-08 6.79692e-09 1.20055e-10 2.09389e-05)
(8.08477e-05 -1.88884e-07 -1.53983e-08 7.4212e-09 1.28744e-10 2.1922e-05)
(8.46491e-05 -2.01895e-07 -1.61834e-08 8.0484e-09 1.37473e-10 2.29098e-05)
(8.84687e-05 -2.14969e-07 -1.69723e-08 8.6786e-09 1.46244e-10 2.39022e-05)
(9.23064e-05 -2.28105e-07 -1.77649e-08 9.3118e-09 1.55057e-10 2.48994e-05)
(9.61619e-05 -2.41301e-07 -1.85612e-08 9.94792e-09 1.6391e-10 2.59013e-05)
(0.000100036 -2.5456e-07 -1.93613e-08 1.0587e-08 1.72805e-10 2.69078e-05)
(0.000103927 -2.67881e-07 -2.0165e-08 1.12292e-08 1.81742e-10 2.7919e-05)
(0.000107837 -2.81264e-07 -2.09726e-08 1.18743e-08 1.90721e-10 2.8935e-05)
(0.000111766 -2.94712e-07 -2.17841e-08 1.25225e-08 1.99743e-10 2.99559e-05)
(0.000115714 -3.08223e-07 -2.25993e-08 1.31738e-08 2.08808e-10 3.09816e-05)
(0.000119679 -3.21796e-07 -2.34184e-08 1.38281e-08 2.17914e-10 3.2012e-05)
(0.000123664 -3.35433e-07 -2.42413e-08 1.44855e-08 2.27063e-10 3.30473e-05)
(0.000128109 -3.53034e-07 -2.51915e-08 1.54603e-08 2.38602e-10 3.41802e-05)
(0.000134177 -3.84813e-07 -2.65927e-08 1.75761e-08 2.58677e-10 3.56539e-05)
(0.000140273 -4.16741e-07 -2.80005e-08 1.97018e-08 2.78847e-10 3.71346e-05)
(0.000146398 -4.4882e-07 -2.94149e-08 2.18375e-08 2.99112e-10 3.86221e-05)
(0.000152552 -4.81048e-07 -3.08359e-08 2.39832e-08 3.19471e-10 4.01167e-05)
(0.000158734 -5.13428e-07 -3.22636e-08 2.61391e-08 3.39926e-10 4.16183e-05)
(0.000164946 -5.45962e-07 -3.36981e-08 2.83051e-08 3.60478e-10 4.3127e-05)
(0.000171187 -5.78648e-07 -3.51393e-08 3.04813e-08 3.81127e-10 4.46428e-05)
(0.000177457 -6.11487e-07 -3.65872e-08 3.26677e-08 4.01872e-10 4.61656e-05)
(0.000183757 -6.44483e-07 -3.8042e-08 3.48645e-08 4.22716e-10 4.76957e-05)
(0.000190087 -6.77634e-07 -3.95037e-08 3.70716e-08 4.43658e-10 4.92331e-05)
(0.000196446 -7.10941e-07 -4.09723e-08 3.92892e-08 4.64699e-10 5.07776e-05)
(0.000202836 -7.44403e-07 -4.24477e-08 4.15171e-08 4.85838e-10 5.23294e-05)
(0.000209255 -7.78022e-07 -4.393e-08 4.37554e-08 5.07076e-10 5.38885e-05)
(0.000215705 -8.11803e-07 -4.54195e-08 4.60045e-08 5.28416e-10 5.5455e-05)
(0.000222184 -8.4574e-07 -4.69159e-08 4.82639e-08 5.49855e-10 5.70288e-05)
(0.000228694 -8.79836e-07 -4.84192e-08 5.0534e-08 5.71394e-10 5.86099e-05)
(0.000235235 -9.14094e-07 -4.99297e-08 5.28149e-08 5.93036e-10 6.01986e-05)
(0.000241807 -9.48515e-07 -5.14474e-08 5.51065e-08 6.1478e-10 6.17948e-05)
(0.00024841 -9.83097e-07 -5.29722e-08 5.7409e-08 6.36626e-10 6.33985e-05)
(0.000255044 -1.01784e-06 -5.45041e-08 5.97222e-08 6.58575e-10 6.50098e-05)
(0.000261709 -1.05275e-06 -5.60432e-08 6.20463e-08 6.80627e-10 6.66285e-05)
(0.000268406 -1.08782e-06 -5.75896e-08 6.43813e-08 7.02782e-10 6.82549e-05)
(0.000275134 -1.12306e-06 -5.91433e-08 6.67274e-08 7.25043e-10 6.9889e-05)
(0.000284456 -1.19208e-06 -6.15437e-08 7.25535e-08 7.6467e-10 7.19844e-05)
(0.000294125 -1.26541e-06 -6.4055e-08 7.88187e-08 8.06533e-10 7.41435e-05)
(0.00030384 -1.33908e-06 -6.6578e-08 8.5113e-08 8.4859e-10 7.63127e-05)
(0.000313601 -1.4131e-06 -6.91128e-08 9.14369e-08 8.90845e-10 7.8492e-05)
(0.000323407 -1.48746e-06 -7.16596e-08 9.77905e-08 9.33298e-10 8.06816e-05)
(0.00033326 -1.56218e-06 -7.42184e-08 1.04174e-07 9.75954e-10 8.28816e-05)
(0.000343159 -1.63725e-06 -7.67894e-08 1.10588e-07 1.01881e-09 8.50921e-05)
(0.000353104 -1.71267e-06 -7.93722e-08 1.17032e-07 1.06187e-09 8.73127e-05)
(0.000363096 -1.78845e-06 -8.19672e-08 1.23506e-07 1.10512e-09 8.95438e-05)
(0.000373136 -1.86458e-06 -8.45745e-08 1.30011e-07 1.14859e-09 9.17854e-05)
(0.000383223 -1.94108e-06 -8.71941e-08 1.36546e-07 1.19225e-09 9.40377e-05)
(0.000393357 -2.01793e-06 -8.98261e-08 1.43112e-07 1.23613e-09 9.63005e-05)
(0.00040354 -2.09515e-06 -9.24706e-08 1.4971e-07 1.28021e-09 9.85742e-05)
(0.00041377 -2.17273e-06 -9.51274e-08 1.56338e-07 1.3245e-09 0.000100858)
(0.000424047 -2.25067e-06 -9.77966e-08 1.62997e-07 1.36899e-09 0.000103153)
(0.000434374 -2.32898e-06 -1.00479e-07 1.69688e-07 1.4137e-09 0.000105459)
(0.000444749 -2.40766e-06 -1.03173e-07 1.7641e-07 1.45862e-09 0.000107776)
(0.000455173 -2.48671e-06 -1.0588e-07 1.83164e-07 1.50374e-09 0.000110103)
(0.000465645 -2.56613e-06 -1.086e-07 1.89949e-07 1.54908e-09 0.000112441)
(0.000476168 -2.64593e-06 -1.11333e-07 1.96767e-07 1.59464e-09 0.000114791)
(0.00048674 -2.7261e-06 -1.14078e-07 2.03616e-07 1.6404e-09 0.000117152)
(0.000497362 -2.80665e-06 -1.16837e-07 2.10498e-07 1.68639e-09 0.000119523)
(0.000508033 -2.88758e-06 -1.19608e-07 2.17413e-07 1.73259e-09 0.000121906)
(0.000518754 -2.96888e-06 -1.22393e-07 2.24359e-07 1.779e-09 0.0001243)
(0.000529527 -3.05058e-06 -1.2519e-07 2.31339e-07 1.82564e-09 0.000126705)
(0.000541965 -3.16269e-06 -1.28619e-07 2.42062e-07 1.88442e-09 0.000129353)
(0.000556691 -3.31681e-06 -1.32915e-07 2.57963e-07 1.95993e-09 0.000132331)
(0.000571488 -3.47166e-06 -1.37233e-07 2.73939e-07 2.03581e-09 0.000135323)
(0.000586353 -3.62724e-06 -1.4157e-07 2.89989e-07 2.11204e-09 0.00013833)
(0.000601288 -3.78354e-06 -1.45928e-07 3.06115e-07 2.18863e-09 0.00014135)
(0.000616295 -3.9406e-06 -1.50307e-07 3.22318e-07 2.26559e-09 0.000144385)
(0.000631371 -4.09838e-06 -1.54706e-07 3.38597e-07 2.3429e-09 0.000147434)
(0.000646519 -4.25691e-06 -1.59126e-07 3.54952e-07 2.42058e-09 0.000150498)
(0.000661738 -4.41619e-06 -1.63566e-07 3.71385e-07 2.49862e-09 0.000153575)
(0.000677028 -4.57621e-06 -1.68028e-07 3.87894e-07 2.57703e-09 0.000156668)
(0.00069239 -4.73699e-06 -1.7251e-07 4.04481e-07 2.65581e-09 0.000159775)
(0.000707825 -4.89852e-06 -1.77014e-07 4.21147e-07 2.73496e-09 0.000162896)
(0.000723332 -5.06081e-06 -1.81539e-07 4.3789e-07 2.81449e-09 0.000166032)
(0.000738913 -5.22388e-06 -1.86085e-07 4.54713e-07 2.89438e-09 0.000169183)
(0.000754567 -5.38771e-06 -1.90652e-07 4.71615e-07 2.97466e-09 0.000172349)
(0.000770294 -5.55231e-06 -1.95241e-07 4.88597e-07 3.05531e-09 0.00017553)
(0.000786096 -5.71769e-06 -1.99852e-07 5.05659e-07 3.13635e-09 0.000178726)
(0.000801973 -5.88385e-06 -2.04485e-07 5.22801e-07 3.21776e-09 0.000181937)
(0.000817923 -6.05078e-06 -2.09139e-07 5.40023e-07 3.29956e-09 0.000185162)
(0.000833948 -6.21849e-06 -2.13815e-07 5.57326e-07 3.38174e-09 0.000188403)
(0.00085005 -6.38701e-06 -2.18513e-07 5.74712e-07 3.46431e-09 0.00019166)
(0.000866228 -6.55631e-06 -2.23233e-07 5.92179e-07 3.54727e-09 0.000194931)
(0.00088248 -6.72641e-06 -2.27976e-07 6.09727e-07 3.63061e-09 0.000198218)
(0.000898809 -6.8973e-06 -2.3274e-07 6.27358e-07 3.71435e-09 0.000201521)
(0.000915216 -7.06901e-06 -2.37527e-07 6.45074e-07 3.79849e-09 0.000204839)
(0.0009317 -7.24153e-06 -2.42337e-07 6.62872e-07 3.88302e-09 0.000208172)
(0.000948262 -7.41485e-06 -2.4717e-07 6.80754e-07 3.96795e-09 0.000211522)
(0.000968647 -7.6837e-06 -2.5368e-07 7.12029e-07 4.07847e-09 0.000215297)
(0.000990371 -7.98526e-06 -2.60771e-07 7.47871e-07 4.19788e-09 0.000219226)
(0.0010122 -8.28825e-06 -2.67895e-07 7.83883e-07 4.31785e-09 0.000223174)
(0.00103413 -8.59266e-06 -2.75053e-07 8.20064e-07 4.43839e-09 0.00022714)
(0.00105616 -8.89851e-06 -2.82244e-07 8.56415e-07 4.55949e-09 0.000231125)
(0.0010783 -9.20578e-06 -2.89469e-07 8.92936e-07 4.68116e-09 0.000235128)
(0.00110054 -9.51451e-06 -2.96729e-07 9.2963e-07 4.80341e-09 0.000239151)
(0.00112289 -9.8247e-06 -3.04022e-07 9.66498e-07 4.92623e-09 0.000243192)
(0.00114534 -1.01363e-05 -3.1135e-07 1.00354e-06 5.04963e-09 0.000247253)
(0.00116789 -1.04495e-05 -3.18712e-07 1.04075e-06 5.17362e-09 0.000251332)
(0.00119056 -1.0764e-05 -3.26109e-07 1.07814e-06 5.29818e-09 0.000255431)
(0.00121333 -1.10801e-05 -3.33541e-07 1.11571e-06 5.42333e-09 0.000259549)
(0.0012362 -1.13976e-05 -3.41008e-07 1.15345e-06 5.54907e-09 0.000263686)
(0.00125919 -1.17167e-05 -3.4851e-07 1.19137e-06 5.6754e-09 0.000267843)
(0.00128228 -1.20373e-05 -3.56047e-07 1.22947e-06 5.80233e-09 0.00027202)
(0.00130548 -1.23593e-05 -3.63619e-07 1.26775e-06 5.92985e-09 0.000276216)
(0.00132879 -1.26829e-05 -3.71228e-07 1.30621e-06 6.05797e-09 0.000280432)
(0.00135221 -1.3008e-05 -3.78872e-07 1.34485e-06 6.1867e-09 0.000284668)
(0.00137574 -1.33346e-05 -3.86552e-07 1.38367e-06 6.31604e-09 0.000288923)
(0.00139939 -1.36628e-05 -3.94269e-07 1.42267e-06 6.44599e-09 0.000293199)
(0.00142314 -1.39925e-05 -4.02021e-07 1.46186e-06 6.57654e-09 0.000297495)
(0.001447 -1.43237e-05 -4.0981e-07 1.50123e-06 6.70771e-09 0.000301811)
(0.00147098 -1.46566e-05 -4.17636e-07 1.54079e-06 6.83949e-09 0.000306147)
(0.00149507 -1.49909e-05 -4.25498e-07 1.58053e-06 6.97189e-09 0.000310504)
(0.00151927 -1.53269e-05 -4.33398e-07 1.62046e-06 7.10492e-09 0.000314881)
(0.00154359 -1.56644e-05 -4.41335e-07 1.66058e-06 7.23857e-09 0.000319279)
(0.00156802 -1.60036e-05 -4.49309e-07 1.70089e-06 7.37286e-09 0.000323698)
(0.00159638 -1.64713e-05 -4.59261e-07 1.76098e-06 7.52597e-09 0.000328438)
(0.00162729 -1.70216e-05 -4.70486e-07 1.83376e-06 7.69129e-09 0.00033339)
(0.00165834 -1.75745e-05 -4.81765e-07 1.90688e-06 7.8574e-09 0.000338365)
(0.00168954 -1.81301e-05 -4.93097e-07 1.98035e-06 8.02429e-09 0.000343364)
(0.00172089 -1.86882e-05 -5.04482e-07 2.05416e-06 8.19197e-09 0.000348386)
(0.00175238 -1.9249e-05 -5.15921e-07 2.12832e-06 8.36043e-09 0.000353433)
(0.00178402 -1.98124e-05 -5.27414e-07 2.20283e-06 8.5297e-09 0.000358503)
(0.00181581 -2.03783e-05 -5.38958e-07 2.27767e-06 8.69971e-09 0.000363595)
(0.00184774 -2.09469e-05 -5.50556e-07 2.35286e-06 8.87052e-09 0.000368711)
(0.00187984 -2.15186e-05 -5.62217e-07 2.42847e-06 9.04226e-09 0.000373856)
(0.0019121 -2.20929e-05 -5.73933e-07 2.50442e-06 9.21481e-09 0.000379024)
(0.00194449 -2.26696e-05 -5.85697e-07 2.58069e-06 9.38806e-09 0.000384213)
(0.00197703 -2.32489e-05 -5.97515e-07 2.6573e-06 9.5621e-09 0.000389426)
(0.00200973 -2.38313e-05 -6.09394e-07 2.73432e-06 9.73705e-09 0.000394667)
(0.00204259 -2.44163e-05 -6.21327e-07 2.81168e-06 9.9128e-09 0.000399931)
(0.00207559 -2.50039e-05 -6.33314e-07 2.8894e-06 1.00893e-08 0.000405219)
(0.00210876 -2.55946e-05 -6.45363e-07 2.96751e-06 1.02668e-08 0.000410534)
(0.00214209 -2.61879e-05 -6.57466e-07 3.04598e-06 1.0445e-08 0.000415873)
(0.00217556 -2.67839e-05 -6.69624e-07 3.12479e-06 1.06241e-08 0.000421236)
(0.00220918 -2.73826e-05 -6.81835e-07 3.20396e-06 1.08039e-08 0.000426623)
(0.00224297 -2.79842e-05 -6.94108e-07 3.28353e-06 1.09847e-08 0.000432037)
(0.00227693 -2.85889e-05 -7.06442e-07 3.36349e-06 1.11663e-08 0.000437478)
(0.00231104 -2.91962e-05 -7.1883e-07 3.44381e-06 1.13488e-08 0.000442943)
(0.00234531 -2.98065e-05 -7.3128e-07 3.52452e-06 1.15321e-08 0.000448435)
(0.00237976 -3.04198e-05 -7.4379e-07 3.60563e-06 1.17164e-08 0.000453954)
(0.00241435 -3.10358e-05 -7.56355e-07 3.68709e-06 1.19014e-08 0.000459496)
(0.00244909 -3.16544e-05 -7.68975e-07 3.7689e-06 1.20873e-08 0.000465063)
(0.00248788 -3.24427e-05 -7.8394e-07 3.87879e-06 1.22833e-08 0.000470856)
(0.00253038 -3.33864e-05 -8.01058e-07 4.0144e-06 1.24889e-08 0.000476862)
(0.00257306 -3.43342e-05 -8.1825e-07 4.15058e-06 1.26954e-08 0.000482892)
(0.00261595 -3.52865e-05 -8.35523e-07 4.28741e-06 1.29028e-08 0.000488952)
(0.00265905 -3.62434e-05 -8.52879e-07 4.42489e-06 1.31112e-08 0.000495041)
(0.00270234 -3.72047e-05 -8.70317e-07 4.56302e-06 1.33206e-08 0.000501158)
(0.00274584 -3.81706e-05 -8.87837e-07 4.7018e-06 1.3531e-08 0.000507304)
(0.00278954 -3.9141e-05 -9.05438e-07 4.84123e-06 1.37424e-08 0.000513479)
(0.00283345 -4.01159e-05 -9.23122e-07 4.98131e-06 1.39547e-08 0.000519682)
(0.00287756 -4.10954e-05 -9.40888e-07 5.12204e-06 1.41681e-08 0.000525915)
(0.0029219 -4.20798e-05 -9.58746e-07 5.2635e-06 1.43825e-08 0.000532179)
(0.00296642 -4.30683e-05 -9.76676e-07 5.40553e-06 1.45978e-08 0.000538469)
(0.00301114 -4.40614e-05 -9.94688e-07 5.54821e-06 1.48141e-08 0.000544788)
(0.00305609 -4.50594e-05 -1.01279e-06 5.69162e-06 1.50315e-08 0.000551138)
(0.00310127 -4.60625e-05 -1.03099e-06 5.83574e-06 1.525e-08 0.000557521)
(0.00314665 -4.70701e-05 -1.04926e-06 5.98052e-06 1.54695e-08 0.000563933)
(0.00319223 -4.80822e-05 -1.06762e-06 6.12595e-06 1.569e-08 0.000570373)
(0.00323804 -4.90994e-05 -1.08607e-06 6.2721e-06 1.59115e-08 0.000576846)
(0.00328405 -5.01211e-05 -1.1046e-06 6.4189e-06 1.61341e-08 0.000583347)
(0.00333029 -5.11478e-05 -1.12323e-06 6.56642e-06 1.63577e-08 0.00058988)
(0.00337676 -5.21796e-05 -1.14194e-06 6.71467e-06 1.65824e-08 0.000596445)
(0.00342343 -5.32158e-05 -1.16074e-06 6.86356e-06 1.68082e-08 0.000603039)
(0.00347032 -5.42571e-05 -1.17963e-06 7.01318e-06 1.7035e-08 0.000609665)
(0.00351743 -5.53029e-05 -1.1986e-06 7.16345e-06 1.72628e-08 0.000616319)
(0.00356475 -5.63538e-05 -1.21766e-06 7.31444e-06 1.74917e-08 0.000623006)
(0.00361233 -5.74102e-05 -1.23682e-06 7.46622e-06 1.77218e-08 0.000629728)
(0.00366011 -5.84711e-05 -1.25606e-06 7.61866e-06 1.79529e-08 0.000636479)
(0.00371495 -5.99178e-05 -1.28021e-06 7.83961e-06 1.81976e-08 0.000643446)
(0.00377136 -6.14437e-05 -1.3054e-06 8.07447e-06 1.84461e-08 0.000650485)
(0.00382804 -6.29767e-05 -1.3307e-06 8.31044e-06 1.86957e-08 0.000657557)
(0.00388498 -6.4517e-05 -1.35612e-06 8.54751e-06 1.89465e-08 0.000664662)
(0.00394222 -6.60651e-05 -1.38167e-06 8.78579e-06 1.91985e-08 0.000671803)
(0.00399969 -6.76196e-05 -1.40732e-06 9.02506e-06 1.94516e-08 0.000678974)
(0.00405743 -6.91813e-05 -1.4331e-06 9.26543e-06 1.97059e-08 0.000686178)
(0.00411546 -7.07509e-05 -1.459e-06 9.50702e-06 1.99614e-08 0.000693419)
(0.00417375 -7.23277e-05 -1.48502e-06 9.74971e-06 2.02181e-08 0.000700692)
(0.00423233 -7.39123e-05 -1.51117e-06 9.99362e-06 2.04761e-08 0.000708002)
(0.00429118 -7.55041e-05 -1.53744e-06 1.02386e-05 2.07353e-08 0.000715345)
(0.0043503 -7.71031e-05 -1.56383e-06 1.04847e-05 2.09957e-08 0.000722721)
(0.0044097 -7.87099e-05 -1.59035e-06 1.07321e-05 2.12573e-08 0.000730133)
(0.0044694 -8.03246e-05 -1.617e-06 1.09806e-05 2.15202e-08 0.000737582)
(0.00452936 -8.19465e-05 -1.64377e-06 1.12302e-05 2.17842e-08 0.000745064)
(0.00458959 -8.35756e-05 -1.67065e-06 1.1481e-05 2.20495e-08 0.000752578)
(0.00465014 -8.52132e-05 -1.69768e-06 1.1733e-05 2.23161e-08 0.000760133)
(0.00471097 -8.68588e-05 -1.72484e-06 1.19863e-05 2.2584e-08 0.000767724)
(0.00477207 -8.85114e-05 -1.75211e-06 1.22407e-05 2.28531e-08 0.000775347)
(0.00483344 -9.01713e-05 -1.77951e-06 1.24962e-05 2.31233e-08 0.000783004)
(0.0048951 -9.1839e-05 -1.80703e-06 1.27529e-05 2.33949e-08 0.000790697)
(0.00495707 -9.35154e-05 -1.8347e-06 1.30109e-05 2.36678e-08 0.00079843)
(0.00501934 -9.51996e-05 -1.86249e-06 1.32701e-05 2.3942e-08 0.000806199)
(0.0050819 -9.68917e-05 -1.89042e-06 1.35305e-05 2.42175e-08 0.000814005)
(0.00514475 -9.85917e-05 -1.91847e-06 1.37922e-05 2.44943e-08 0.000821847)
(0.00520789 -0.0001003 -1.94666e-06 1.40551e-05 2.47724e-08 0.000829725)
(0.00527772 -0.000102488 -1.98062e-06 1.44102e-05 2.51005e-08 0.000837667)
(0.0053496 -0.000104813 -2.01625e-06 1.47913e-05 2.54433e-08 0.000845657)
(0.00542181 -0.000107148 -2.05204e-06 1.51742e-05 2.57876e-08 0.000853683)
(0.00549435 -0.000109494 -2.08799e-06 1.55587e-05 2.61335e-08 0.000861745)
(0.00556724 -0.000111852 -2.12412e-06 1.59452e-05 2.64811e-08 0.000869847)
(0.00564047 -0.00011422 -2.16042e-06 1.63334e-05 2.68302e-08 0.000877986)
(0.00571405 -0.0001166 -2.19689e-06 1.67235e-05 2.71811e-08 0.000886165)
(0.00578796 -0.00011899 -2.23352e-06 1.71153e-05 2.75335e-08 0.00089438)
(0.00586223 -0.000121392 -2.27034e-06 1.75091e-05 2.78877e-08 0.000902635)
(0.00593686 -0.000123806 -2.30733e-06 1.79047e-05 2.82435e-08 0.00091093)
(0.00601182 -0.00012623 -2.34448e-06 1.83021e-05 2.86009e-08 0.000919261)
(0.00608713 -0.000128666 -2.38181e-06 1.87014e-05 2.89601e-08 0.000927632)
(0.00616283 -0.000131114 -2.41933e-06 1.91027e-05 2.9321e-08 0.000936046)
(0.0062389 -0.000133574 -2.45703e-06 1.9506e-05 2.96837e-08 0.0009445)
(0.00631529 -0.000136045 -2.49489e-06 1.9911e-05 3.0048e-08 0.000952991)
(0.00639203 -0.000138527 -2.53293e-06 2.03179e-05 3.04139e-08 0.000961521)
(0.00646914 -0.000141021 -2.57115e-06 2.07267e-05 3.07816e-08 0.000970092)
(0.0065466 -0.000143526 -2.60955e-06 2.11373e-05 3.1151e-08 0.000978702)
(0.00662443 -0.000146043 -2.64812e-06 2.15499e-05 3.15221e-08 0.000987352)
(0.00670264 -0.000148573 -2.68689e-06 2.19646e-05 3.1895e-08 0.000996045)
(0.00678124 -0.000151115 -2.72585e-06 2.23813e-05 3.22698e-08 0.00100478)
(0.0068602 -0.000153669 -2.76498e-06 2.27999e-05 3.26463e-08 0.00101356)
(0.00693951 -0.000156234 -2.80429e-06 2.32204e-05 3.30245e-08 0.00102237)
(0.00701919 -0.000158811 -2.84379e-06 2.36428e-05 3.34044e-08 0.00103123)
(0.00709925 -0.0001614 -2.88347e-06 2.40672e-05 3.37862e-08 0.00104013)
(0.00718317 -0.000164373 -2.92751e-06 2.45729e-05 3.42775e-08 0.00104899)
(0.00727078 -0.000167715 -2.97576e-06 2.5157e-05 3.48745e-08 0.00105781)
(0.00735882 -0.000171073 -3.02424e-06 2.57438e-05 3.54744e-08 0.00106667)
(0.00744728 -0.000174447 -3.07295e-06 2.63334e-05 3.60771e-08 0.00107557)
(0.00753616 -0.000177837 -3.12189e-06 2.69259e-05 3.66827e-08 0.00108452)
(0.00762546 -0.000181243 -3.17106e-06 2.75211e-05 3.72912e-08 0.00109351)
(0.00771515 -0.000184664 -3.22045e-06 2.8119e-05 3.79024e-08 0.00110253)
(0.00780526 -0.000188101 -3.27007e-06 2.87196e-05 3.85163e-08 0.0011116)
(0.00789583 -0.000191556 -3.31994e-06 2.93233e-05 3.91334e-08 0.00112072)
(0.00798681 -0.000195026 -3.37004e-06 2.99297e-05 3.97534e-08 0.00112988)
(0.00807822 -0.000198512 -3.42037e-06 3.0539e-05 4.03762e-08 0.00113908)
(0.00817007 -0.000202016 -3.47095e-06 3.11513e-05 4.10021e-08 0.00114833)
(0.00826235 -0.000205536 -3.52176e-06 3.17664e-05 4.16309e-08 0.00115761)
(0.00835505 -0.000209072 -3.57281e-06 3.23843e-05 4.22625e-08 0.00116694)
(0.00844821 -0.000212625 -3.6241e-06 3.30053e-05 4.28973e-08 0.00117632)
(0.00854182 -0.000216195 -3.67565e-06 3.36292e-05 4.35351e-08 0.00118574)
(0.00863584 -0.000219782 -3.72742e-06 3.4256e-05 4.41758e-08 0.00119521)
(0.00873029 -0.000223384 -3.77943e-06 3.48855e-05 4.48193e-08 0.00120471)
(0.0088252 -0.000227004 -3.83169e-06 3.55181e-05 4.5466e-08 0.00121427)
(0.00892055 -0.000230641 -3.8842e-06 3.61537e-05 4.61157e-08 0.00122387)
(0.00901636 -0.000234296 -3.93695e-06 3.67924e-05 4.67685e-08 0.00123351)
(0.00911262 -0.000237968 -3.98996e-06 3.7434e-05 4.74245e-08 0.0012432)
(0.00920934 -0.000241657 -4.04322e-06 3.80787e-05 4.80835e-08 0.00125293)
(0.00930651 -0.000245363 -4.09672e-06 3.87264e-05 4.87455e-08 0.00126271)
(0.00940442 -0.000249146 -4.15108e-06 3.93919e-05 4.94476e-08 0.00127251)
(0.00950642 -0.000253693 -4.21317e-06 4.02444e-05 5.06127e-08 0.00128204)
(0.00960892 -0.000258263 -4.27556e-06 4.11012e-05 5.17836e-08 0.00129161)
(0.0097119 -0.000262854 -4.33825e-06 4.19619e-05 5.29599e-08 0.00130123)
(0.00981535 -0.000267466 -4.40122e-06 4.28266e-05 5.41415e-08 0.00131089)
(0.0099193 -0.0002721 -4.4645e-06 4.36955e-05 5.5329e-08 0.0013206)
(0.0100237 -0.000276755 -4.52806e-06 4.45683e-05 5.65218e-08 0.00133035)
(0.0101287 -0.000281433 -4.59193e-06 4.54453e-05 5.77204e-08 0.00134015)
(0.0102341 -0.000286133 -4.65611e-06 4.63266e-05 5.89248e-08 0.00135)
(0.01034 -0.000290854 -4.72058e-06 4.72118e-05 6.01345e-08 0.00135989)
(0.0104464 -0.000295598 -4.78536e-06 4.81013e-05 6.135e-08 0.00136983)
(0.0105533 -0.000300365 -4.85044e-06 4.89949e-05 6.25713e-08 0.00137981)
(0.0106607 -0.000305154 -4.91583e-06 4.98928e-05 6.37984e-08 0.00138985)
(0.0107687 -0.000309965 -4.98153e-06 5.07949e-05 6.50312e-08 0.00139993)
(0.0108771 -0.000314799 -5.04753e-06 5.17012e-05 6.62698e-08 0.00141005)
(0.010986 -0.000319655 -5.11384e-06 5.26117e-05 6.75142e-08 0.00142023)
(0.0110955 -0.000324534 -5.18046e-06 5.35265e-05 6.87643e-08 0.00143045)
(0.0112055 -0.000329437 -5.24741e-06 5.44458e-05 7.00206e-08 0.00144072)
(0.0113159 -0.000334363 -5.31466e-06 5.53693e-05 7.12826e-08 0.00145104)
(0.0114269 -0.000339311 -5.38223e-06 5.6297e-05 7.25505e-08 0.0014614)
(0.0115385 -0.000344283 -5.45012e-06 5.72292e-05 7.38245e-08 0.00147182)
(0.0116505 -0.000349279 -5.51834e-06 5.81659e-05 7.51046e-08 0.00148229)
(0.0117631 -0.000354297 -5.58686e-06 5.91069e-05 7.63905e-08 0.0014928)
(0.0118762 -0.00035934 -5.65572e-06 6.00523e-05 7.76826e-08 0.00150336)
(0.0119896 -0.00036482 -5.72799e-06 6.11275e-05 7.94356e-08 0.00151372)
(0.0121032 -0.000370716 -5.80351e-06 6.23255e-05 8.16254e-08 0.00152388)
(0.0122175 -0.00037664 -5.87941e-06 6.35296e-05 8.38262e-08 0.0015341)
(0.0123322 -0.000382593 -5.95566e-06 6.47393e-05 8.60374e-08 0.00154436)
(0.0124475 -0.000388573 -6.03227e-06 6.59547e-05 8.82589e-08 0.00155467)
(0.0125633 -0.000394582 -6.10923e-06 6.71757e-05 9.04907e-08 0.00156502)
(0.0126797 -0.000400618 -6.18656e-06 6.84024e-05 9.27329e-08 0.00157543)
(0.0127966 -0.000406683 -6.26426e-06 6.96351e-05 9.4986e-08 0.00158588)
(0.0129141 -0.000412777 -6.34231e-06 7.08735e-05 9.72495e-08 0.00159639)
(0.0130321 -0.000418898 -6.42073e-06 7.21175e-05 9.95233e-08 0.00160694)
(0.0131506 -0.000425049 -6.49952e-06 7.33675e-05 1.01808e-07 0.00161754)
(0.0132698 -0.000431229 -6.57869e-06 7.46235e-05 1.04104e-07 0.00162819)
(0.0133894 -0.000437438 -6.65822e-06 7.58852e-05 1.0641e-07 0.0016389)
(0.0135097 -0.000443675 -6.73813e-06 7.71529e-05 1.08727e-07 0.00164965)
(0.0136305 -0.000449944 -6.81843e-06 7.84269e-05 1.11056e-07 0.00166045)
(0.0137519 -0.000456241 -6.8991e-06 7.97067e-05 1.13395e-07 0.00167131)
(0.0138739 -0.000462568 -6.98014e-06 8.09924e-05 1.15745e-07 0.00168221)
(0.0139964 -0.000468926 -7.06158e-06 8.22844e-05 1.18107e-07 0.00169317)
(0.0141195 -0.000475311 -7.14338e-06 8.35822e-05 1.20479e-07 0.00170418)
(0.0142432 -0.000481726 -7.22556e-06 8.48859e-05 1.22862e-07 0.00171524)
(0.0143675 -0.000488173 -7.30814e-06 8.6196e-05 1.25256e-07 0.00172635)
(0.0144923 -0.000494651 -7.39112e-06 8.75124e-05 1.27662e-07 0.00173752)
(0.0146178 -0.000501158 -7.47448e-06 8.88349e-05 1.3008e-07 0.00174873)
(0.0147387 -0.000508282 -7.55952e-06 9.04029e-05 1.33546e-07 0.00175949)
(0.0148592 -0.000515555 -7.64522e-06 9.20257e-05 1.37234e-07 0.0017702)
(0.0149802 -0.000522861 -7.73131e-06 9.36558e-05 1.40939e-07 0.00178096)
(0.0151018 -0.000530202 -7.81781e-06 9.52936e-05 1.44661e-07 0.00179176)
(0.015224 -0.000537577 -7.90471e-06 9.69392e-05 1.48401e-07 0.00180262)
(0.0153467 -0.000544987 -7.99203e-06 9.85924e-05 1.52158e-07 0.00181353)
(0.01547 -0.000552432 -8.07975e-06 0.000100253 1.55933e-07 0.00182449)
(0.0155939 -0.000559912 -8.16788e-06 0.000101922 1.59726e-07 0.0018355)
(0.0157184 -0.000567428 -8.25644e-06 0.000103599 1.63537e-07 0.00184657)
(0.0158435 -0.000574978 -8.34541e-06 0.000105284 1.67365e-07 0.00185768)
(0.0159691 -0.000582563 -8.43478e-06 0.000106976 1.71211e-07 0.00186885)
(0.0160954 -0.000590185 -8.52459e-06 0.000108677 1.75076e-07 0.00188007)
(0.0162223 -0.000597844 -8.61483e-06 0.000110385 1.78959e-07 0.00189135)
(0.0163497 -0.000605539 -8.7055e-06 0.000112102 1.82861e-07 0.00190268)
(0.0164778 -0.000613268 -8.79658e-06 0.000113827 1.86781e-07 0.00191406)
(0.0166064 -0.000621034 -8.88809e-06 0.000115559 1.90719e-07 0.00192549)
(0.0167356 -0.000628837 -8.98003e-06 0.0001173 1.94675e-07 0.00193698)
(0.0168655 -0.000636677 -9.0724e-06 0.000119049 1.9865e-07 0.00194852)
(0.016996 -0.000644554 -9.16523e-06 0.000120807 2.02645e-07 0.00196012)
(0.0171271 -0.000652469 -9.25849e-06 0.000122573 2.06658e-07 0.00197177)
(0.0172588 -0.00066042 -9.35217e-06 0.000124347 2.1069e-07 0.00198348)
(0.0173909 -0.000668418 -9.44619e-06 0.000126136 2.14768e-07 0.00199522)
(0.0175115 -0.000676936 -9.53571e-06 0.000128252 2.20208e-07 0.00200634)
(0.0176328 -0.000685495 -9.62566e-06 0.000130378 2.25673e-07 0.00201751)
(0.0177546 -0.000694093 -9.71603e-06 0.000132514 2.31164e-07 0.00202873)
(0.017877 -0.000702731 -9.80682e-06 0.00013466 2.36681e-07 0.00204001)
(0.0179999 -0.000711411 -9.89804e-06 0.000136816 2.42224e-07 0.00205133)
(0.0181235 -0.000720132 -9.98969e-06 0.000138983 2.47793e-07 0.00206272)
(0.0182476 -0.000728893 -1.00818e-05 0.000141159 2.53388e-07 0.00207415)
(0.0183723 -0.000737695 -1.01743e-05 0.000143346 2.59009e-07 0.00208564)
(0.0184976 -0.00074654 -1.02672e-05 0.000145543 2.64657e-07 0.00209718)
(0.0186235 -0.000755426 -1.03606e-05 0.000147751 2.70332e-07 0.00210878)
(0.0187499 -0.000764353 -1.04544e-05 0.000149969 2.76033e-07 0.00212043)
(0.018877 -0.000773323 -1.05487e-05 0.000152197 2.81761e-07 0.00213214)
(0.0190047 -0.000782335 -1.06434e-05 0.000154436 2.87516e-07 0.0021439)
(0.019133 -0.000791391 -1.07386e-05 0.000156685 2.93299e-07 0.00215572)
(0.0192618 -0.000800487 -1.08342e-05 0.000158945 2.99108e-07 0.00216759)
(0.0193913 -0.000809626 -1.09303e-05 0.000161216 3.04945e-07 0.00217952)
(0.0195214 -0.000818809 -1.10268e-05 0.000163497 3.10808e-07 0.0021915)
(0.0196521 -0.000828034 -1.11237e-05 0.000165789 3.167e-07 0.00220354)
(0.0197834 -0.000837304 -1.12211e-05 0.000168092 3.2262e-07 0.00221564)
(0.0199153 -0.000846617 -1.1319e-05 0.000170405 3.28567e-07 0.0022278)
(0.0200471 -0.000855981 -1.14168e-05 0.000172745 3.34588e-07 0.00223997)
(0.0201622 -0.000865578 -1.15028e-05 0.000175438 3.41654e-07 0.00225148)
(0.0202778 -0.00087522 -1.15892e-05 0.000178144 3.48754e-07 0.00226304)
(0.0203941 -0.000884908 -1.1676e-05 0.000180863 3.55888e-07 0.00227465)
(0.0205108 -0.000894641 -1.17632e-05 0.000183594 3.63054e-07 0.00228632)
(0.0206281 -0.000904419 -1.18508e-05 0.000186338 3.70254e-07 0.00229804)
(0.0207459 -0.000914244 -1.19388e-05 0.000189096 3.7749e-07 0.00230982)
(0.0208643 -0.000924116 -1.20273e-05 0.000191866 3.84759e-07 0.00232165)
(0.0209833 -0.000934034 -1.21162e-05 0.000194649 3.92062e-07 0.00233354)
(0.0211028 -0.000943998 -1.22054e-05 0.000197446 3.99398e-07 0.00234548)
(0.0212228 -0.000954007 -1.22951e-05 0.000200255 4.06769e-07 0.00235748)
(0.0213435 -0.000964065 -1.23852e-05 0.000203077 4.14174e-07 0.00236954)