/*--------------------------------*- C++ -*----------------------------------*\
| =========                 |                                                 |
| \\      /  F ield         | OpenFOAM: The Open Source CFD Toolbox           |
|  \\    /   O peration     | Version:  v1806                                 |
|   \\  /    A nd           | Web:      www.OpenFOAM.com                      |
|    \\/     M anipulation  |                                                 |
\*---------------------------------------------------------------------------*/
FoamFile
{
    version     2.0;
    format      ascii;
    class       volSymmTensorField;
    location    "10000";
    object      turbulenceProperties:R;
}
// * * * * * * * * * * * * * * * * * * * * * * * * * * * * * * * * * * * * * //

dimensions      [0 2 -2 0 0 0 0];


internalField   nonuniform List<symmTensor> 
1025
(
(6.97245e-09 -2.50506e-13 0 6.97245e-09 0 6.97245e-09)
(8.54601e-08 -1.24897e-11 0 8.54601e-08 0 8.54601e-08)
(2.5241e-07 -6.50897e-11 0 2.5241e-07 0 2.5241e-07)
(5.09394e-07 -1.88551e-10 0 5.09394e-07 0 5.09394e-07)
(8.58017e-07 -4.14322e-10 0 8.58017e-07 0 8.58017e-07)
(1.29993e-06 -7.74848e-10 0 1.29993e-06 0 1.29993e-06)
(1.83683e-06 -1.30362e-09 0 1.83683e-06 0 1.83683e-06)
(2.47044e-06 -2.03521e-09 0 2.47044e-06 0 2.47044e-06)
(3.20255e-06 -3.00534e-09 0 3.20255e-06 0 3.20255e-06)
(4.03496e-06 -4.25091e-09 0 4.03496e-06 0 4.03496e-06)
(4.96957e-06 -5.81011e-09 0 4.96957e-06 0 4.96957e-06)
(6.00828e-06 -7.72242e-09 0 6.00828e-06 0 6.00828e-06)
(7.15305e-06 -1.00286e-08 0 7.15305e-06 0 7.15305e-06)
(8.40589e-06 -1.27711e-08 0 8.40589e-06 0 8.40589e-06)
(9.76889e-06 -1.59935e-08 0 9.76889e-06 0 9.76889e-06)
(1.12441e-05 -1.97411e-08 0 1.12441e-05 0 1.12441e-05)
(1.28338e-05 -2.4061e-08 0 1.28338e-05 0 1.28338e-05)
(1.45401e-05 -2.90018e-08 0 1.45401e-05 0 1.45401e-05)
(1.63654e-05 -3.46139e-08 0 1.63654e-05 0 1.63654e-05)
(1.8312e-05 -4.09496e-08 0 1.8312e-05 0 1.8312e-05)
(2.03821e-05 -4.8063e-08 0 2.03821e-05 0 2.03821e-05)
(2.25784e-05 -5.60104e-08 0 2.25784e-05 0 2.25784e-05)
(2.49033e-05 -6.48502e-08 0 2.49033e-05 0 2.49033e-05)
(2.73593e-05 -7.46429e-08 0 2.73593e-05 0 2.73593e-05)
(2.99492e-05 -8.54516e-08 0 2.99492e-05 0 2.99492e-05)
(3.26757e-05 -9.73413e-08 0 3.26757e-05 0 3.26757e-05)
(3.55413e-05 -1.10379e-07 0 3.55413e-05 0 3.55413e-05)
(3.8549e-05 -1.24637e-07 0 3.8549e-05 0 3.8549e-05)
(4.17016e-05 -1.40186e-07 0 4.17016e-05 0 4.17016e-05)
(4.50021e-05 -1.57102e-07 0 4.50021e-05 0 4.50021e-05)
(4.84538e-05 -1.75467e-07 0 4.84538e-05 0 4.84538e-05)
(5.20592e-05 -1.95359e-07 0 5.20592e-05 0 5.20592e-05)
(5.58219e-05 -2.16865e-07 0 5.58219e-05 0 5.58219e-05)
(5.97455e-05 -2.40077e-07 0 5.97455e-05 0 5.97455e-05)
(6.38328e-05 -2.65082e-07 0 6.38328e-05 0 6.38328e-05)
(6.80871e-05 -2.91977e-07 0 6.80871e-05 0 6.80871e-05)
(7.25118e-05 -3.2086e-07 0 7.25118e-05 0 7.25118e-05)
(7.71108e-05 -3.51837e-07 0 7.71108e-05 0 7.71108e-05)
(8.18881e-05 -3.85018e-07 0 8.18881e-05 0 8.18881e-05)
(8.68469e-05 -4.20513e-07 0 8.68469e-05 0 8.68469e-05)
(9.19909e-05 -4.58437e-07 0 9.19909e-05 0 9.19909e-05)
(9.73244e-05 -4.98914e-07 0 9.73244e-05 0 9.73244e-05)
(0.000102851 -5.42071e-07 0 0.000102851 0 0.000102851)
(0.000108576 -5.88038e-07 0 0.000108576 0 0.000108576)
(0.000114501 -6.36951e-07 0 0.000114501 0 0.000114501)
(0.000120633 -6.88958e-07 0 0.000120633 0 0.000120633)
(0.000126975 -7.44208e-07 0 0.000126975 0 0.000126975)
(0.000133531 -8.02847e-07 0 0.000133531 0 0.000133531)
(0.000140307 -8.65043e-07 0 0.000140307 0 0.000140307)
(0.000147307 -9.30969e-07 0 0.000147307 0 0.000147307)
(0.000154535 -1.0008e-06 0 0.000154535 0 0.000154535)
(0.000161997 -1.07471e-06 0 0.000161997 0 0.000161997)
(0.000169697 -1.1529e-06 0 0.000169697 0 0.000169697)
(0.000177641 -1.23556e-06 0 0.000177641 0 0.000177641)
(0.000185833 -1.3229e-06 0 0.000185833 0 0.000185833)
(0.00019428 -1.41516e-06 0 0.00019428 0 0.00019428)
(0.000202988 -1.51255e-06 0 0.000202988 0 0.000202988)
(0.000211959 -1.61529e-06 0 0.000211959 0 0.000211959)
(0.000221201 -1.72365e-06 0 0.000221201 0 0.000221201)
(0.00023072 -1.83788e-06 0 0.00023072 0 0.00023072)
(0.000240522 -1.95825e-06 0 0.000240522 0 0.000240522)
(0.000250612 -2.08505e-06 0 0.000250612 0 0.000250612)
(0.000260997 -2.21857e-06 0 0.000260997 0 0.000260997)
(0.000271683 -2.35911e-06 0 0.000271683 0 0.000271683)
(0.000282677 -2.507e-06 0 0.000282677 0 0.000282677)
(0.000293985 -2.66258e-06 0 0.000293985 0 0.000293985)
(0.000305614 -2.8262e-06 0 0.000305614 0 0.000305614)
(0.000317571 -2.99823e-06 0 0.000317571 0 0.000317571)
(0.000329863 -3.17905e-06 0 0.000329863 0 0.000329863)
(0.000342498 -3.36909e-06 0 0.000342498 0 0.000342498)
(0.000355481 -3.56874e-06 0 0.000355481 0 0.000355481)
(0.000368822 -3.77846e-06 0 0.000368822 0 0.000368822)
(0.000382526 -3.9987e-06 0 0.000382526 0 0.000382526)
(0.000396605 -4.22998e-06 0 0.000396605 0 0.000396605)
(0.000411062 -4.47278e-06 0 0.000411062 0 0.000411062)
(0.000425908 -4.72764e-06 0 0.000425908 0 0.000425908)
(0.000441152 -4.99514e-06 0 0.000441152 0 0.000441152)
(0.000456801 -5.27586e-06 0 0.000456801 0 0.000456801)
(0.000472865 -5.57042e-06 0 0.000472865 0 0.000472865)
(0.000489351 -5.87946e-06 0 0.000489351 0 0.000489351)
(0.000506269 -6.20366e-06 0 0.000506269 0 0.000506269)
(0.000523628 -6.54375e-06 0 0.000523628 0 0.000523628)
(0.000541438 -6.90048e-06 0 0.000541438 0 0.000541438)
(0.000559708 -7.27462e-06 0 0.000559708 0 0.000559708)
(0.000578449 -7.66703e-06 0 0.000578449 0 0.000578449)
(0.000597668 -8.07855e-06 0 0.000597668 0 0.000597668)
(0.000617378 -8.51011e-06 0 0.000617378 0 0.000617378)
(0.000637589 -8.96267e-06 0 0.000637589 0 0.000637589)
(0.000658311 -9.43726e-06 0 0.000658311 0 0.000658311)
(0.000679556 -9.93496e-06 0 0.000679556 0 0.000679556)
(0.000701333 -1.04568e-05 0 0.000701333 0 0.000701333)
(0.000723653 -1.10041e-05 0 0.000723653 0 0.000723653)
(0.000746531 -1.1578e-05 0 0.000746531 0 0.000746531)
(0.000769976 -1.21799e-05 0 0.000769976 0 0.000769976)
(0.000794001 -1.28111e-05 0 0.000794001 0 0.000794001)
(0.000818619 -1.34731e-05 0 0.000818619 0 0.000818619)
(0.00084384 -1.41674e-05 0 0.00084384 0 0.00084384)
(0.000869675 -1.48956e-05 0 0.000869675 0 0.000869675)
(0.000896143 -1.56595e-05 0 0.000896143 0 0.000896143)
(0.000923252 -1.64609e-05 0 0.000923252 0 0.000923252)
(0.000951016 -1.73015e-05 0 0.000951016 0 0.000951016)
(0.000979449 -1.81835e-05 0 0.000979449 0 0.000979449)
(0.00100857 -1.9109e-05 0 0.00100857 0 0.00100857)
(0.00103838 -2.00802e-05 0 0.00103838 0 0.00103838)
(0.00106891 -2.10995e-05 0 0.00106891 0 0.00106891)
(0.00110017 -2.21693e-05 0 0.00110017 0 0.00110017)
(0.00113216 -2.32922e-05 0 0.00113216 0 0.00113216)
(0.00116491 -2.44712e-05 0 0.00116491 0 0.00116491)
(0.00119844 -2.57091e-05 0 0.00119844 0 0.00119844)
(0.00123275 -2.7009e-05 0 0.00123275 0 0.00123275)
(0.00126786 -2.83742e-05 0 0.00126786 0 0.00126786)
(0.00130379 -2.98082e-05 0 0.00130379 0 0.00130379)
(0.00134056 -3.13148e-05 0 0.00134056 0 0.00134056)
(0.00137818 -3.28978e-05 0 0.00137818 0 0.00137818)
(0.00141667 -3.45613e-05 0 0.00141667 0 0.00141667)
(0.00145605 -3.63098e-05 0 0.00145605 0 0.00145605)
(0.00149633 -3.81479e-05 0 0.00149633 0 0.00149633)
(0.00153753 -4.00804e-05 0 0.00153753 0 0.00153753)
(0.00157968 -4.21126e-05 0 0.00157968 0 0.00157968)
(0.00162277 -4.42501e-05 0 0.00162277 0 0.00162277)
(0.00166685 -4.64985e-05 0 0.00166685 0 0.00166685)
(0.00171192 -4.88641e-05 0 0.00171192 0 0.00171192)
(0.001758 -5.13536e-05 0 0.001758 0 0.001758)
(0.00180512 -5.39737e-05 0 0.00180512 0 0.00180512)
(0.00185329 -5.67318e-05 0 0.00185329 0 0.00185329)
(0.00190253 -5.96358e-05 0 0.00190253 0 0.00190253)
(0.00195286 -6.26936e-05 0 0.00195286 0 0.00195286)
(0.0020043 -6.59139e-05 0 0.0020043 0 0.0020043)
(0.00205688 -6.93064e-05 0 0.00205688 0 0.00205688)
(0.0021106 -7.28804e-05 0 0.0021106 0 0.0021106)
(0.00216549 -7.6646e-05 0 0.00216549 0 0.00216549)
(0.00222158 -8.06144e-05 0 0.00222158 0 0.00222158)
(0.00227887 -8.47973e-05 0 0.00227887 0 0.00227887)
(0.00233741 -8.92064e-05 0 0.00233741 0 0.00233741)
(0.00239719 -9.38545e-05 0 0.00239719 0 0.00239719)
(0.00245824 -9.87553e-05 0 0.00245824 0 0.00245824)
(0.00252059 -0.000103923 0 0.00252059 0 0.00252059)
(0.00258426 -0.000109372 0 0.00258426 0 0.00258426)
(0.00264926 -0.00011512 0 0.00264926 0 0.00264926)
(0.00271561 -0.000121181 0 0.00271561 0 0.00271561)
(0.00278334 -0.000127575 0 0.00278334 0 0.00278334)
(0.00285246 -0.000134318 0 0.00285246 0 0.00285246)
(0.002923 -0.000141431 0 0.002923 0 0.002923)
(0.00299498 -0.000148934 0 0.00299498 0 0.00299498)
(0.0030684 -0.000156847 0 0.0030684 0 0.0030684)
(0.0031433 -0.000165193 0 0.0031433 0 0.0031433)
(0.00321969 -0.000173995 0 0.00321969 0 0.00321969)
(0.00329758 -0.000183277 0 0.00329758 0 0.00329758)
(0.00337701 -0.000193064 0 0.00337701 0 0.00337701)
(0.00345797 -0.000203383 0 0.00345797 0 0.00345797)
(0.00354048 -0.000214259 0 0.00354048 0 0.00354048)
(0.00362457 -0.000225721 0 0.00362457 0 0.00362457)
(0.00371024 -0.000237799 0 0.00371024 0 0.00371024)
(0.00379752 -0.000250522 0 0.00379752 0 0.00379752)
(0.0038864 -0.00026392 0 0.0038864 0 0.0038864)
(0.0039769 -0.000278024 0 0.0039769 0 0.0039769)
(0.00406903 -0.000292867 0 0.00406903 0 0.00406903)
(0.0041628 -0.000308481 0 0.0041628 0 0.0041628)
(0.00425821 -0.0003249 0 0.00425821 0 0.00425821)
(0.00435527 -0.000342157 0 0.00435527 0 0.00435527)
(0.00445399 -0.000360286 0 0.00445399 0 0.00445399)
(0.00455437 -0.000379322 0 0.00455437 0 0.00455437)
(0.0046564 -0.000399298 0 0.0046564 0 0.0046564)
(0.00476008 -0.000420245 0 0.00476008 0 0.00476008)
(0.0048654 -0.0004422 0 0.0048654 0 0.0048654)
(0.00497238 -0.000465194 0 0.00497238 0 0.00497238)
(0.00508099 -0.00048926 0 0.00508099 0 0.00508099)
(0.00519123 -0.000514427 0 0.00519123 0 0.00519123)
(0.00530309 -0.000540726 0 0.00530309 0 0.00530309)
(0.00541652 -0.000568179 0 0.00541652 0 0.00541652)
(0.00553152 -0.000596814 0 0.00553152 0 0.00553152)
(0.00564817 -0.000626681 0 0.00564817 0 0.00564817)
(0.00576637 -0.000657779 0 0.00576637 0 0.00576637)
(0.005886 -0.000690112 0 0.005886 0 0.005886)
(0.00600712 -0.000723711 0 0.00600712 0 0.00600712)
(0.00612976 -0.000758608 0 0.00612976 0 0.00612976)
(0.00625381 -0.000794796 0 0.00625381 0 0.00625381)
(0.00637924 -0.000832284 0 0.00637924 0 0.00637924)
(0.00650608 -0.000871095 0 0.00650608 0 0.00650608)
(0.00663422 -0.000911211 0 0.00663422 0 0.00663422)
(0.00676362 -0.000952632 0 0.00676362 0 0.00676362)
(0.00689424 -0.000995351 0 0.00689424 0 0.00689424)
(0.00702609 -0.00103938 0 0.00702609 0 0.00702609)
(0.00715913 -0.00108471 0 0.00715913 0 0.00715913)
(0.00729324 -0.0011313 0 0.00729324 0 0.00729324)
(0.00742844 -0.00117916 0 0.00742844 0 0.00742844)
(0.00756467 -0.00122827 0 0.00756467 0 0.00756467)
(0.00770182 -0.00127859 0 0.00770182 0 0.00770182)
(0.00783981 -0.00133008 0 0.00783981 0 0.00783981)
(0.00797868 -0.00138274 0 0.00797868 0 0.00797868)
(0.00811843 -0.00143656 0 0.00811843 0 0.00811843)
(0.00825887 -0.00149148 0 0.00825887 0 0.00825887)
(0.0084 -0.00154747 0 0.0084 0 0.0084)
(0.00854177 -0.0016045 0 0.00854177 0 0.00854177)
(0.00868412 -0.00166254 0 0.00868412 0 0.00868412)
(0.00882699 -0.00172155 0 0.00882699 0 0.00882699)
(0.00897033 -0.00178149 0 0.00897033 0 0.00897033)
(0.00911407 -0.00184232 0 0.00911407 0 0.00911407)
(0.00925815 -0.00190401 0 0.00925815 0 0.00925815)
(0.0094026 -0.00196654 0 0.0094026 0 0.0094026)
(0.0095472 -0.00202981 0 0.0095472 0 0.0095472)
(0.00969198 -0.00209383 0 0.00969198 0 0.00969198)
(0.00983695 -0.00215856 0 0.00983695 0 0.00983695)
(0.00998206 -0.00222398 0 0.00998206 0 0.00998206)
(0.0101272 -0.00229003 0 0.0101272 0 0.0101272)
(0.0102723 -0.00235665 0 0.0102723 0 0.0102723)
(0.0104173 -0.00242385 0 0.0104173 0 0.0104173)
(0.0105622 -0.00249156 0 0.0105622 0 0.0105622)
(0.010707 -0.00255978 0 0.010707 0 0.010707)
(0.0108516 -0.00262846 0 0.0108516 0 0.0108516)
(0.010996 -0.00269755 0 0.010996 0 0.010996)
(0.01114 -0.00276704 0 0.01114 0 0.01114)
(0.0112837 -0.00283688 0 0.0112837 0 0.0112837)
(0.0114271 -0.00290705 0 0.0114271 0 0.0114271)
(0.0115701 -0.00297756 0 0.0115701 0 0.0115701)
(0.0117127 -0.00304832 0 0.0117127 0 0.0117127)
(0.0118547 -0.00311931 0 0.0118547 0 0.0118547)
(0.0119962 -0.00319055 0 0.0119962 0 0.0119962)
(0.0121373 -0.00326199 0 0.0121373 0 0.0121373)
(0.0122777 -0.0033336 0 0.0122777 0 0.0122777)
(0.0124177 -0.00340539 0 0.0124177 0 0.0124177)
(0.0125569 -0.00347728 0 0.0125569 0 0.0125569)
(0.0126955 -0.00354927 0 0.0126955 0 0.0126955)
(0.0128335 -0.00362137 0 0.0128335 0 0.0128335)
(0.0129707 -0.00369353 0 0.0129707 0 0.0129707)
(0.0131073 -0.00376575 0 0.0131073 0 0.0131073)
(0.0132431 -0.00383799 0 0.0132431 0 0.0132431)
(0.0133782 -0.00391024 0 0.0133782 0 0.0133782)
(0.0135125 -0.00398251 0 0.0135125 0 0.0135125)
(0.0136461 -0.00405476 0 0.0136461 0 0.0136461)
(0.0137788 -0.00412697 0 0.0137788 0 0.0137788)
(0.0139107 -0.00419912 0 0.0139107 0 0.0139107)
(0.0140419 -0.00427125 0 0.0140419 0 0.0140419)
(0.0141722 -0.0043433 0 0.0141722 0 0.0141722)
(0.0143017 -0.00441527 0 0.0143017 0 0.0143017)
(0.0144303 -0.00448713 0 0.0144303 0 0.0144303)
(0.014558 -0.00455889 0 0.014558 0 0.014558)
(0.014685 -0.00463056 0 0.014685 0 0.014685)
(0.0148111 -0.00470212 0 0.0148111 0 0.0148111)
(0.0149364 -0.00477355 0 0.0149364 0 0.0149364)
(0.0150608 -0.00484485 0 0.0150608 0 0.0150608)
(0.0151844 -0.00491601 0 0.0151844 0 0.0151844)
(0.0153071 -0.00498704 0 0.0153071 0 0.0153071)
(0.015429 -0.00505793 0 0.015429 0 0.015429)
(0.01555 -0.00512867 0 0.01555 0 0.01555)
(0.0156702 -0.00519925 0 0.0156702 0 0.0156702)
(0.0157896 -0.0052697 0 0.0157896 0 0.0157896)
(0.0159081 -0.00533999 0 0.0159081 0 0.0159081)
(0.0160258 -0.00541013 0 0.0160258 0 0.0160258)
(0.0161427 -0.00548012 0 0.0161427 0 0.0161427)
(0.0162588 -0.00554996 0 0.0162588 0 0.0162588)
(0.0163741 -0.00561966 0 0.0163741 0 0.0163741)
(0.0164886 -0.0056892 0 0.0164886 0 0.0164886)
(0.0166023 -0.00575861 0 0.0166023 0 0.0166023)
(0.0167153 -0.00582788 0 0.0167153 0 0.0167153)
(0.0168276 -0.00589702 0 0.0168276 0 0.0168276)
(0.0169391 -0.00596602 0 0.0169391 0 0.0169391)
(0.0170498 -0.0060349 0 0.0170498 0 0.0170498)
(0.0171598 -0.00610366 0 0.0171598 0 0.0171598)
(0.0172691 -0.00617231 0 0.0172691 0 0.0172691)
(0.0173777 -0.00624084 0 0.0173777 0 0.0173777)
(0.0174857 -0.00630928 0 0.0174857 0 0.0174857)
(0.017593 -0.00637762 0 0.017593 0 0.017593)
(0.0176996 -0.00644587 0 0.0176996 0 0.0176996)
(0.0178056 -0.00651405 0 0.0178056 0 0.0178056)
(0.0179109 -0.00658214 0 0.0179109 0 0.0179109)
(0.0180156 -0.00665017 0 0.0180156 0 0.0180156)
(0.0181198 -0.00671815 0 0.0181198 0 0.0181198)
(0.0182233 -0.00678607 0 0.0182233 0 0.0182233)
(0.0183263 -0.00685395 0 0.0183263 0 0.0183263)
(0.0184287 -0.0069218 0 0.0184287 0 0.0184287)
(0.0185306 -0.00698961 0 0.0185306 0 0.0185306)
(0.0186319 -0.00705742 0 0.0186319 0 0.0186319)
(0.0187327 -0.0071252 0 0.0187327 0 0.0187327)
(0.018833 -0.00719299 0 0.018833 0 0.018833)
(0.0189329 -0.00726079 0 0.0189329 0 0.0189329)
(0.0190322 -0.00732859 0 0.0190322 0 0.0190322)
(0.0191311 -0.00739641 0 0.0191311 0 0.0191311)
(0.0192296 -0.00746426 0 0.0192296 0 0.0192296)
(0.0193276 -0.00753215 0 0.0193276 0 0.0193276)
(0.0194251 -0.00760008 0 0.0194251 0 0.0194251)
(0.0195223 -0.00766806 0 0.0195223 0 0.0195223)
(0.0196191 -0.0077361 0 0.0196191 0 0.0196191)
(0.0197155 -0.0078042 0 0.0197155 0 0.0197155)
(0.0198115 -0.00787238 0 0.0198115 0 0.0198115)
(0.0199072 -0.00794063 0 0.0199072 0 0.0199072)
(0.0200025 -0.00800897 0 0.0200025 0 0.0200025)
(0.0200974 -0.0080774 0 0.0200974 0 0.0200974)
(0.0201921 -0.00814593 0 0.0201921 0 0.0201921)
(0.0202865 -0.00821455 0 0.0202865 0 0.0202865)
(0.0203805 -0.00828329 0 0.0203805 0 0.0203805)
(0.0204742 -0.00835214 0 0.0204742 0 0.0204742)
(0.0205677 -0.00842111 0 0.0205677 0 0.0205677)
(0.0206609 -0.00849021 0 0.0206609 0 0.0206609)
(0.0207539 -0.00855943 0 0.0207539 0 0.0207539)
(0.0208466 -0.00862878 0 0.0208466 0 0.0208466)
(0.0209391 -0.00869828 0 0.0209391 0 0.0209391)
(0.0210313 -0.00876792 0 0.0210313 0 0.0210313)
(0.0211233 -0.0088377 0 0.0211233 0 0.0211233)
(0.0212152 -0.00890764 0 0.0212152 0 0.0212152)
(0.0213068 -0.00897772 0 0.0213068 0 0.0213068)
(0.0213982 -0.00904797 0 0.0213982 0 0.0213982)
(0.0214895 -0.00911838 0 0.0214895 0 0.0214895)
(0.0215806 -0.00918895 0 0.0215806 0 0.0215806)
(0.0216715 -0.00925969 0 0.0216715 0 0.0216715)
(0.0217623 -0.0093306 0 0.0217623 0 0.0217623)
(0.0218529 -0.00940169 0 0.0218529 0 0.0218529)
(0.0219434 -0.00947295 0 0.0219434 0 0.0219434)
(0.0220338 -0.00954438 0 0.0220338 0 0.0220338)
(0.0221241 -0.009616 0 0.0221241 0 0.0221241)
(0.0222142 -0.00968779 0 0.0222142 0 0.0222142)
(0.0223043 -0.00975977 0 0.0223043 0 0.0223043)
(0.0223942 -0.00983193 0 0.0223942 0 0.0223942)
(0.0224841 -0.00990428 0 0.0224841 0 0.0224841)
(0.0225739 -0.00997681 0 0.0225739 0 0.0225739)
(0.0226636 -0.0100495 0 0.0226636 0 0.0226636)
(0.0227532 -0.0101225 0 0.0227532 0 0.0227532)
(0.0228428 -0.0101956 0 0.0228428 0 0.0228428)
(0.0229324 -0.0102688 0 0.0229324 0 0.0229324)
(0.0230219 -0.0103423 0 0.0230219 0 0.0230219)
(0.0231113 -0.010416 0 0.0231113 0 0.0231113)
(0.0232007 -0.0104899 0 0.0232007 0 0.0232007)
(0.0232901 -0.0105639 0 0.0232901 0 0.0232901)
(0.0233795 -0.0106382 0 0.0233795 0 0.0233795)
(0.0234688 -0.0107126 0 0.0234688 0 0.0234688)
(0.0235582 -0.0107873 0 0.0235582 0 0.0235582)
(0.0236475 -0.0108621 0 0.0236475 0 0.0236475)
(0.0237368 -0.0109371 0 0.0237368 0 0.0237368)
(0.0238261 -0.0110123 0 0.0238261 0 0.0238261)
(0.0239155 -0.0110877 0 0.0239155 0 0.0239155)
(0.0240049 -0.0111633 0 0.0240049 0 0.0240049)
(0.0240942 -0.0112391 0 0.0240942 0 0.0240942)
(0.0241837 -0.0113151 0 0.0241837 0 0.0241837)
(0.0242731 -0.0113912 0 0.0242731 0 0.0242731)
(0.0243626 -0.0114676 0 0.0243626 0 0.0243626)
(0.0244521 -0.0115441 0 0.0244521 0 0.0244521)
(0.0245416 -0.0116208 0 0.0245416 0 0.0245416)
(0.0246312 -0.0116977 0 0.0246312 0 0.0246312)
(0.0247209 -0.0117748 0 0.0247209 0 0.0247209)
(0.0248106 -0.011852 0 0.0248106 0 0.0248106)
(0.0249004 -0.0119295 0 0.0249004 0 0.0249004)
(0.0249902 -0.0120071 0 0.0249902 0 0.0249902)
(0.0250801 -0.0120849 0 0.0250801 0 0.0250801)
(0.0251701 -0.0121628 0 0.0251701 0 0.0251701)
(0.0252601 -0.012241 0 0.0252601 0 0.0252601)
(0.0253503 -0.0123193 0 0.0253503 0 0.0253503)
(0.0254405 -0.0123978 0 0.0254405 0 0.0254405)
(0.0255308 -0.0124764 0 0.0255308 0 0.0255308)
(0.0256212 -0.0125552 0 0.0256212 0 0.0256212)
(0.0257116 -0.0126342 0 0.0257116 0 0.0257116)
(0.0258022 -0.0127134 0 0.0258022 0 0.0258022)
(0.0258929 -0.0127927 0 0.0258929 0 0.0258929)
(0.0259837 -0.0128721 0 0.0259837 0 0.0259837)
(0.0260746 -0.0129517 0 0.0260746 0 0.0260746)
(0.0261655 -0.0130315 0 0.0261655 0 0.0261655)
(0.0262566 -0.0131114 0 0.0262566 0 0.0262566)
(0.0263478 -0.0131915 0 0.0263478 0 0.0263478)
(0.0264392 -0.0132717 0 0.0264392 0 0.0264392)
(0.0265306 -0.0133521 0 0.0265306 0 0.0265306)
(0.0266222 -0.0134326 0 0.0266222 0 0.0266222)
(0.0267139 -0.0135132 0 0.0267139 0 0.0267139)
(0.0268057 -0.013594 0 0.0268057 0 0.0268057)
(0.0268976 -0.0136749 0 0.0268976 0 0.0268976)
(0.0269897 -0.013756 0 0.0269897 0 0.0269897)
(0.0270819 -0.0138372 0 0.0270819 0 0.0270819)
(0.0271742 -0.0139185 0 0.0271742 0 0.0271742)
(0.0272667 -0.0139999 0 0.0272667 0 0.0272667)
(0.0273592 -0.0140815 0 0.0273592 0 0.0273592)
(0.027452 -0.0141632 0 0.027452 0 0.027452)
(0.0275449 -0.014245 0 0.0275449 0 0.0275449)
(0.0276379 -0.0143269 0 0.0276379 0 0.0276379)
(0.0277311 -0.0144089 0 0.0277311 0 0.0277311)
(0.0278244 -0.0144911 0 0.0278244 0 0.0278244)
(0.0279179 -0.0145733 0 0.0279179 0 0.0279179)
(0.0280115 -0.0146557 0 0.0280115 0 0.0280115)
(0.0281052 -0.0147381 0 0.0281052 0 0.0281052)
(0.0281992 -0.0148207 0 0.0281992 0 0.0281992)
(0.0282932 -0.0149034 0 0.0282932 0 0.0282932)
(0.0283875 -0.0149861 0 0.0283875 0 0.0283875)
(0.0284818 -0.015069 0 0.0284818 0 0.0284818)
(0.0285764 -0.0151519 0 0.0285764 0 0.0285764)
(0.0286711 -0.015235 0 0.0286711 0 0.0286711)
(0.0287659 -0.0153181 0 0.0287659 0 0.0287659)
(0.028861 -0.0154013 0 0.028861 0 0.028861)
(0.0289561 -0.0154845 0 0.0289561 0 0.0289561)
(0.0290515 -0.0155679 0 0.0290515 0 0.0290515)
(0.029147 -0.0156513 0 0.029147 0 0.029147)
(0.0292427 -0.0157348 0 0.0292427 0 0.0292427)
(0.0293385 -0.0158184 0 0.0293385 0 0.0293385)
(0.0294345 -0.015902 0 0.0294345 0 0.0294345)
(0.0295307 -0.0159857 0 0.0295307 0 0.0295307)
(0.029627 -0.0160695 0 0.029627 0 0.029627)
(0.0297235 -0.0161533 0 0.0297235 0 0.0297235)
(0.0298202 -0.0162371 0 0.0298202 0 0.0298202)
(0.0299171 -0.016321 0 0.0299171 0 0.0299171)
(0.0300141 -0.016405 0 0.0300141 0 0.0300141)
(0.0301113 -0.016489 0 0.0301113 0 0.0301113)
(0.0302087 -0.0165731 0 0.0302087 0 0.0302087)
(0.0303062 -0.0166572 0 0.0303062 0 0.0303062)
(0.0304039 -0.0167413 0 0.0304039 0 0.0304039)
(0.0305018 -0.0168255 0 0.0305018 0 0.0305018)
(0.0305998 -0.0169097 0 0.0305998 0 0.0305998)
(0.0306981 -0.0169939 0 0.0306981 0 0.0306981)
(0.0307965 -0.0170782 0 0.0307965 0 0.0307965)
(0.0308951 -0.0171625 0 0.0308951 0 0.0308951)
(0.0309938 -0.0172468 0 0.0309938 0 0.0309938)
(0.0310927 -0.0173311 0 0.0310927 0 0.0310927)
(0.0311918 -0.0174155 0 0.0311918 0 0.0311918)
(0.0312911 -0.0174998 0 0.0312911 0 0.0312911)
(0.0313905 -0.0175842 0 0.0313905 0 0.0313905)
(0.0314901 -0.0176686 0 0.0314901 0 0.0314901)
(0.0315899 -0.017753 0 0.0315899 0 0.0315899)
(0.0316899 -0.0178373 0 0.0316899 0 0.0316899)
(0.03179 -0.0179217 0 0.03179 0 0.03179)
(0.0318903 -0.0180061 0 0.0318903 0 0.0318903)
(0.0319908 -0.0180905 0 0.0319908 0 0.0319908)
(0.0320915 -0.0181748 0 0.0320915 0 0.0320915)
(0.0321923 -0.0182592 0 0.0321923 0 0.0321923)
(0.0322933 -0.0183435 0 0.0322933 0 0.0322933)
(0.0323945 -0.0184278 0 0.0323945 0 0.0323945)
(0.0324958 -0.0185121 0 0.0324958 0 0.0324958)
(0.0325973 -0.0185964 0 0.0325973 0 0.0325973)
(0.032699 -0.0186807 0 0.032699 0 0.032699)
(0.0328009 -0.0187649 0 0.0328009 0 0.0328009)
(0.0329029 -0.0188491 0 0.0329029 0 0.0329029)
(0.0330051 -0.0189332 0 0.0330051 0 0.0330051)
(0.0331074 -0.0190174 0 0.0331074 0 0.0331074)
(0.0332099 -0.0191015 0 0.0332099 0 0.0332099)
(0.0333126 -0.0191855 0 0.0333126 0 0.0333126)
(0.0334155 -0.0192695 0 0.0334155 0 0.0334155)
(0.0335185 -0.0193534 0 0.0335185 0 0.0335185)
(0.0336217 -0.0194374 0 0.0336217 0 0.0336217)
(0.033725 -0.0195212 0 0.033725 0 0.033725)
(0.0338286 -0.019605 0 0.0338286 0 0.0338286)
(0.0339322 -0.0196887 0 0.0339322 0 0.0339322)
(0.0340361 -0.0197724 0 0.0340361 0 0.0340361)
(0.0341401 -0.019856 0 0.0341401 0 0.0341401)
(0.0342442 -0.0199396 0 0.0342442 0 0.0342442)
(0.0343485 -0.0200231 0 0.0343485 0 0.0343485)
(0.034453 -0.0201065 0 0.034453 0 0.034453)
(0.0345576 -0.0201898 0 0.0345576 0 0.0345576)
(0.0346624 -0.0202731 0 0.0346624 0 0.0346624)
(0.0347673 -0.0203563 0 0.0347673 0 0.0347673)
(0.0348724 -0.0204394 0 0.0348724 0 0.0348724)
(0.0349777 -0.0205224 0 0.0349777 0 0.0349777)
(0.0350831 -0.0206053 0 0.0350831 0 0.0350831)
(0.0351886 -0.0206881 0 0.0351886 0 0.0351886)
(0.0352943 -0.0207709 0 0.0352943 0 0.0352943)
(0.0354001 -0.0208535 0 0.0354001 0 0.0354001)
(0.0355061 -0.0209361 0 0.0355061 0 0.0355061)
(0.0356122 -0.0210186 0 0.0356122 0 0.0356122)
(0.0357184 -0.0211009 0 0.0357184 0 0.0357184)
(0.0358248 -0.0211832 0 0.0358248 0 0.0358248)
(0.0359314 -0.0212653 0 0.0359314 0 0.0359314)
(0.0360381 -0.0213473 0 0.0360381 0 0.0360381)
(0.0361449 -0.0214293 0 0.0361449 0 0.0361449)
(0.0362518 -0.0215111 0 0.0362518 0 0.0362518)
(0.0363589 -0.0215928 0 0.0363589 0 0.0363589)
(0.0364661 -0.0216743 0 0.0364661 0 0.0364661)
(0.0365734 -0.0217558 0 0.0365734 0 0.0365734)
(0.0366809 -0.0218371 0 0.0366809 0 0.0366809)
(0.0367885 -0.0219183 0 0.0367885 0 0.0367885)
(0.0368962 -0.0219994 0 0.0368962 0 0.0368962)
(0.0370041 -0.0220803 0 0.0370041 0 0.0370041)
(0.037112 -0.0221611 0 0.037112 0 0.037112)
(0.0372201 -0.0222418 0 0.0372201 0 0.0372201)
(0.0373283 -0.0223223 0 0.0373283 0 0.0373283)
(0.0374366 -0.0224027 0 0.0374366 0 0.0374366)
(0.037545 -0.0224829 0 0.037545 0 0.037545)
(0.0376536 -0.022563 0 0.0376536 0 0.0376536)
(0.0377622 -0.0226429 0 0.0377622 0 0.0377622)
(0.037871 -0.0227227 0 0.037871 0 0.037871)
(0.0379799 -0.0228024 0 0.0379799 0 0.0379799)
(0.0380888 -0.0228818 0 0.0380888 0 0.0380888)
(0.0381979 -0.0229611 0 0.0381979 0 0.0381979)
(0.0383071 -0.0230403 0 0.0383071 0 0.0383071)
(0.0384164 -0.0231193 0 0.0384164 0 0.0384164)
(0.0385257 -0.0231981 0 0.0385257 0 0.0385257)
(0.0386352 -0.0232768 0 0.0386352 0 0.0386352)
(0.0387447 -0.0233553 0 0.0387447 0 0.0387447)
(0.0388544 -0.0234336 0 0.0388544 0 0.0388544)
(0.0389641 -0.0235117 0 0.0389641 0 0.0389641)
(0.0390739 -0.0235897 0 0.0390739 0 0.0390739)
(0.0391838 -0.0236675 0 0.0391838 0 0.0391838)
(0.0392938 -0.0237451 0 0.0392938 0 0.0392938)
(0.0394038 -0.0238225 0 0.0394038 0 0.0394038)
(0.0395139 -0.0238997 0 0.0395139 0 0.0395139)
(0.0396241 -0.0239767 0 0.0396241 0 0.0396241)
(0.0397344 -0.0240536 0 0.0397344 0 0.0397344)
(0.0398447 -0.0241302 0 0.0398447 0 0.0398447)
(0.0399552 -0.0242067 0 0.0399552 0 0.0399552)
(0.0400656 -0.0242829 0 0.0400656 0 0.0400656)
(0.0401761 -0.024359 0 0.0401761 0 0.0401761)
(0.0402867 -0.0244348 0 0.0402867 0 0.0402867)
(0.0403974 -0.0245105 0 0.0403974 0 0.0403974)
(0.0405081 -0.0245859 0 0.0405081 0 0.0405081)
(0.0406188 -0.0246611 0 0.0406188 0 0.0406188)
(0.0407296 -0.0247362 0 0.0407296 0 0.0407296)
(0.0408405 -0.024811 0 0.0408405 0 0.0408405)
(0.0409513 -0.0248855 0 0.0409513 0 0.0409513)
(0.0410623 -0.0249599 0 0.0410623 0 0.0410623)
(0.0411732 -0.025034 0 0.0411732 0 0.0411732)
(0.0412842 -0.0251079 0 0.0412842 0 0.0412842)
(0.0413952 -0.0251816 0 0.0413952 0 0.0413952)
(0.0415063 -0.0252551 0 0.0415063 0 0.0415063)
(0.0416174 -0.0253285 0 0.0416174 0 0.0416174)
(0.0417285 -0.0254016 0 0.0417285 0 0.0417285)
(0.0418396 -0.0254746 0 0.0418396 0 0.0418396)
(0.0419508 -0.0255476 0 0.0419508 0 0.0419508)
(0.0420619 -0.0256204 0 0.0420619 0 0.0420619)
(0.0421731 -0.0256932 0 0.0421731 0 0.0421731)
(0.0422843 -0.0257666 0 0.0422843 0 0.0422843)
(0.0423955 -0.0258398 0 0.0423955 0 0.0423955)
(0.0425067 -0.0259126 0 0.0425067 0 0.0425067)
(0.0426179 -0.0259849 0 0.0426179 0 0.0426179)
(0.0427291 -0.026056 0 0.0427291 0 0.0427291)
(0.0428404 -0.0261268 0 0.0428404 0 0.0428404)
(0.0429516 -0.0261972 0 0.0429516 0 0.0429516)
(0.0430627 -0.0262674 0 0.0430627 0 0.0430627)
(0.0431739 -0.0263372 0 0.0431739 0 0.0431739)
(0.0432851 -0.0264068 0 0.0432851 0 0.0432851)
(0.0433962 -0.0264761 0 0.0433962 0 0.0433962)
(0.0435073 -0.0265451 0 0.0435073 0 0.0435073)
(0.0436184 -0.0266138 0 0.0436184 0 0.0436184)
(0.0437294 -0.0266823 0 0.0437294 0 0.0437294)
(0.0438404 -0.0267505 0 0.0438404 0 0.0438404)
(0.0439514 -0.0268184 0 0.0439514 0 0.0439514)
(0.0440624 -0.0268861 0 0.0440624 0 0.0440624)
(0.0441732 -0.0269534 0 0.0441732 0 0.0441732)
(0.0442841 -0.0270205 0 0.0442841 0 0.0442841)
(0.0443949 -0.0270873 0 0.0443949 0 0.0443949)
(0.0445056 -0.0271539 0 0.0445056 0 0.0445056)
(0.0446163 -0.0272201 0 0.0446163 0 0.0446163)
(0.0447269 -0.027286 0 0.0447269 0 0.0447269)
(0.0448374 -0.0273517 0 0.0448374 0 0.0448374)
(0.0449479 -0.0274171 0 0.0449479 0 0.0449479)
(0.0450583 -0.0274821 0 0.0450583 0 0.0450583)
(0.0451686 -0.0275469 0 0.0451686 0 0.0451686)
(0.0452789 -0.0276114 0 0.0452789 0 0.0452789)
(0.0453891 -0.0276756 0 0.0453891 0 0.0453891)
(0.0454992 -0.0277394 0 0.0454992 0 0.0454992)
(0.0456092 -0.027803 0 0.0456092 0 0.0456092)
(0.0457191 -0.0278663 0 0.0457191 0 0.0457191)
(0.0458289 -0.0279292 0 0.0458289 0 0.0458289)
(0.0459386 -0.0279919 0 0.0459386 0 0.0459386)
(0.0460482 -0.0280542 0 0.0460482 0 0.0460482)
(0.0461577 -0.0281163 0 0.0461577 0 0.0461577)
(0.0462671 -0.028178 0 0.0462671 0 0.0462671)
(0.0463763 -0.0282394 0 0.0463763 0 0.0463763)
(0.0464855 -0.0283005 0 0.0464855 0 0.0464855)
(0.0465945 -0.0283612 0 0.0465945 0 0.0465945)
(0.0467034 -0.0284217 0 0.0467034 0 0.0467034)
(0.0468122 -0.0284818 0 0.0468122 0 0.0468122)
(0.0469208 -0.0285416 0 0.0469208 0 0.0469208)
(0.0470293 -0.028601 0 0.0470293 0 0.0470293)
(0.0471377 -0.0286601 0 0.0471377 0 0.0471377)
(0.0472459 -0.028719 0 0.0472459 0 0.0472459)
(0.0473539 -0.0287775 0 0.0473539 0 0.0473539)
(0.0474619 -0.0288356 0 0.0474619 0 0.0474619)
(0.0475697 -0.0288933 0 0.0475697 0 0.0475697)
(0.0476773 -0.0289508 0 0.0476773 0 0.0476773)
(0.0477847 -0.029008 0 0.0477847 0 0.0477847)
(0.047892 -0.0290647 0 0.047892 0 0.047892)
(0.0479991 -0.0291211 0 0.0479991 0 0.0479991)
(0.0481061 -0.0291771 0 0.0481061 0 0.0481061)
(0.0482128 -0.0292329 0 0.0482128 0 0.0482128)
(0.0483193 -0.0292883 0 0.0483193 0 0.0483193)
(0.0484257 -0.0293434 0 0.0484257 0 0.0484257)
(0.0485319 -0.029398 0 0.0485319 0 0.0485319)
(0.0486379 -0.0294524 0 0.0486379 0 0.0486379)
(0.0487436 -0.0295064 0 0.0487436 0 0.0487436)
(0.0488492 -0.02956 0 0.0488492 0 0.0488492)
(0.0489546 -0.0296132 0 0.0489546 0 0.0489546)
(0.0490598 -0.0296661 0 0.0490598 0 0.0490598)
(0.0491648 -0.0297186 0 0.0491648 0 0.0491648)
(0.0492695 -0.0297708 0 0.0492695 0 0.0492695)
(0.0493739 -0.0298226 0 0.0493739 0 0.0493739)
(0.0494782 -0.0298741 0 0.0494782 0 0.0494782)
(0.0495823 -0.0299251 0 0.0495823 0 0.0495823)
(0.0496861 -0.0299758 0 0.0496861 0 0.0496861)
(0.0497896 -0.0300262 0 0.0497896 0 0.0497896)
(0.049893 -0.0300761 0 0.049893 0 0.049893)
(0.0499961 -0.0301257 0 0.0499961 0 0.0499961)
(0.0500989 -0.0301749 0 0.0500989 0 0.0500989)
(0.0502014 -0.0302237 0 0.0502014 0 0.0502014)
(0.0503037 -0.0302722 0 0.0503037 0 0.0503037)
(0.0504057 -0.0303202 0 0.0504057 0 0.0504057)
(0.0505075 -0.0303679 0 0.0505075 0 0.0505075)
(0.0506091 -0.0304151 0 0.0506091 0 0.0506091)
(0.0507103 -0.030462 0 0.0507103 0 0.0507103)
(0.0508112 -0.0305086 0 0.0508112 0 0.0508112)
(0.0509119 -0.0305547 0 0.0509119 0 0.0509119)
(0.0510123 -0.0306004 0 0.0510123 0 0.0510123)
(0.0511123 -0.0306457 0 0.0511123 0 0.0511123)