/*--------------------------------*- C++ -*----------------------------------*\
| =========                 |                                                 |
| \\      /  F ield         | OpenFOAM: The Open Source CFD Toolbox           |
|  \\    /   O peration     | Version:  v1806                                 |
|   \\  /    A nd           | Web:      www.OpenFOAM.com                      |
|    \\/     M anipulation  |                                                 |
\*---------------------------------------------------------------------------*/
FoamFile
{
    version     2.0;
    format      ascii;
    class       volVectorField;
    location    "10000";
    object      U;
}
// * * * * * * * * * * * * * * * * * * * * * * * * * * * * * * * * * * * * * //

dimensions      [0 1 -1 0 0 0 0];


internalField   nonuniform List<vector> 
1025
(
(0.000229865 -2.17467e-16 0)
(0.000690511 -4.70739e-16 0)
(0.00115318 -4.57556e-16 0)
(0.00161789 -4.35815e-16 0)
(0.00208468 -4.30162e-16 0)
(0.00255357 -4.31147e-16 0)
(0.00302461 -4.31768e-16 0)
(0.00349781 -4.31679e-16 0)
(0.00397321 -4.31471e-16 0)
(0.00445084 -4.31344e-16 0)
(0.00493073 -4.31276e-16 0)
(0.00541291 -4.31245e-16 0)
(0.00589741 -4.31227e-16 0)
(0.00638426 -4.31218e-16 0)
(0.0068735 -4.31213e-16 0)
(0.00736516 -4.31211e-16 0)
(0.00785926 -4.31209e-16 0)
(0.00835585 -4.31208e-16 0)
(0.00885496 -4.31208e-16 0)
(0.00935662 -4.31206e-16 0)
(0.00986085 -4.31206e-16 0)
(0.0103677 -4.31205e-16 0)
(0.0108772 -4.31205e-16 0)
(0.0113894 -4.31205e-16 0)
(0.0119043 -4.31206e-16 0)
(0.0124219 -4.31205e-16 0)
(0.0129424 -4.3121e-16 0)
(0.0134656 -4.31201e-16 0)
(0.0139918 -4.3121e-16 0)
(0.0145207 -4.31204e-16 0)
(0.0150527 -4.31199e-16 0)
(0.0155876 -4.31213e-16 0)
(0.0161254 -4.31198e-16 0)
(0.0166664 -4.31199e-16 0)
(0.0172104 -4.312e-16 0)
(0.0177575 -4.31201e-16 0)
(0.0183078 -4.31206e-16 0)
(0.0188612 -4.312e-16 0)
(0.0194179 -4.31194e-16 0)
(0.0199778 -4.31202e-16 0)
(0.020541 -4.31197e-16 0)
(0.0211076 -4.31195e-16 0)
(0.0216775 -4.31193e-16 0)
(0.0222509 -4.31195e-16 0)
(0.0228277 -4.31198e-16 0)
(0.023408 -4.31188e-16 0)
(0.0239918 -4.31192e-16 0)
(0.0245792 -4.31197e-16 0)
(0.0251702 -4.31192e-16 0)
(0.0257649 -4.3119e-16 0)
(0.0263633 -4.31189e-16 0)
(0.0269654 -4.31201e-16 0)
(0.0275713 -4.31187e-16 0)
(0.028181 -4.31203e-16 0)
(0.0287945 -4.31195e-16 0)
(0.029412 -4.31188e-16 0)
(0.0300335 -4.31194e-16 0)
(0.0306589 -4.31197e-16 0)
(0.0312883 -4.3119e-16 0)
(0.0319218 -4.31187e-16 0)
(0.0325595 -4.31186e-16 0)
(0.0332013 -4.31184e-16 0)
(0.0338473 -4.31185e-16 0)
(0.0344975 -4.31189e-16 0)
(0.0351521 -4.31181e-16 0)
(0.035811 -4.31189e-16 0)
(0.0364743 -4.31184e-16 0)
(0.037142 -4.31195e-16 0)
(0.0378142 -4.31181e-16 0)
(0.0384909 -4.3119e-16 0)
(0.0391722 -4.31172e-16 0)
(0.0398581 -4.31183e-16 0)
(0.0405486 -4.31173e-16 0)
(0.041244 -4.3117e-16 0)
(0.041944 -4.3119e-16 0)
(0.0426488 -4.31169e-16 0)
(0.0433585 -4.31176e-16 0)
(0.0440731 -4.31164e-16 0)
(0.0447926 -4.31176e-16 0)
(0.0455172 -4.31166e-16 0)
(0.0462467 -4.31181e-16 0)
(0.0469814 -4.31159e-16 0)
(0.0477212 -4.31176e-16 0)
(0.0484662 -4.31161e-16 0)
(0.0492164 -4.31169e-16 0)
(0.049972 -4.31167e-16 0)
(0.0507328 -4.31167e-16 0)
(0.051499 -4.3117e-16 0)
(0.0522707 -4.31163e-16 0)
(0.053048 -4.31168e-16 0)
(0.0538306 -4.31172e-16 0)
(0.0546189 -4.31166e-16 0)
(0.0554128 -4.31164e-16 0)
(0.0562125 -4.31165e-16 0)
(0.0570179 -4.31168e-16 0)
(0.0578291 -4.31155e-16 0)
(0.0586461 -4.31165e-16 0)
(0.059469 -4.31159e-16 0)
(0.0602978 -4.31155e-16 0)
(0.0611327 -4.31161e-16 0)
(0.0619735 -4.31158e-16 0)
(0.0628205 -4.31161e-16 0)
(0.0636736 -4.31154e-16 0)
(0.064533 -4.31168e-16 0)
(0.0653986 -4.31148e-16 0)
(0.0662704 -4.31161e-16 0)
(0.0671486 -4.3116e-16 0)
(0.0680332 -4.3115e-16 0)
(0.0689243 -4.31161e-16 0)
(0.0698219 -4.31161e-16 0)
(0.070726 -4.31146e-16 0)
(0.0716366 -4.31154e-16 0)
(0.0725539 -4.31139e-16 0)
(0.073478 -4.31152e-16 0)
(0.0744087 -4.31159e-16 0)
(0.0753463 -4.31166e-16 0)
(0.0762906 -4.31173e-16 0)
(0.0772418 -4.31179e-16 0)
(0.0782 -4.31172e-16 0)
(0.0791651 -4.3117e-16 0)
(0.0801372 -4.31162e-16 0)
(0.0811163 -4.31164e-16 0)
(0.0821026 -4.31159e-16 0)
(0.0830959 -4.31154e-16 0)
(0.0840965 -4.31148e-16 0)
(0.0851043 -4.31148e-16 0)
(0.0861192 -4.31149e-16 0)
(0.0871414 -4.31142e-16 0)
(0.0881709 -4.31134e-16 0)
(0.0892078 -4.31146e-16 0)
(0.090252 -4.31141e-16 0)
(0.0913035 -4.31134e-16 0)
(0.0923625 -4.31129e-16 0)
(0.093429 -4.31129e-16 0)
(0.0945028 -4.31122e-16 0)
(0.0955841 -4.31122e-16 0)
(0.0966728 -4.31125e-16 0)
(0.0977691 -4.31116e-16 0)
(0.0988728 -4.31119e-16 0)
(0.099984 -4.31117e-16 0)
(0.101103 -4.31128e-16 0)
(0.102229 -4.31124e-16 0)
(0.103362 -4.31132e-16 0)
(0.104503 -4.31137e-16 0)
(0.105652 -4.31126e-16 0)
(0.106808 -4.31127e-16 0)
(0.107971 -4.31122e-16 0)
(0.109141 -4.31124e-16 0)
(0.110319 -4.31117e-16 0)
(0.111504 -4.31121e-16 0)
(0.112696 -4.31111e-16 0)
(0.113895 -4.31108e-16 0)
(0.115102 -4.31107e-16 0)
(0.116315 -4.31107e-16 0)
(0.117535 -4.31106e-16 0)
(0.118762 -4.31107e-16 0)
(0.119995 -4.31103e-16 0)
(0.121235 -4.31115e-16 0)
(0.122481 -4.31113e-16 0)
(0.123734 -4.31125e-16 0)
(0.124992 -4.3112e-16 0)
(0.126257 -4.31114e-16 0)
(0.127527 -4.31118e-16 0)
(0.128803 -4.31129e-16 0)
(0.130085 -4.31124e-16 0)
(0.131371 -4.31128e-16 0)
(0.132663 -4.31131e-16 0)
(0.133959 -4.31121e-16 0)
(0.13526 -4.31107e-16 0)
(0.136565 -4.31126e-16 0)
(0.137874 -4.31076e-16 0)
(0.139188 -4.30994e-16 0)
(0.140506 -4.31064e-16 0)
(0.141825 -4.31042e-16 0)
(0.143148 -4.31024e-16 0)
(0.144474 -4.30931e-16 0)
(0.145802 -4.31001e-16 0)
(0.147132 -4.30941e-16 0)
(0.148465 -4.30972e-16 0)
(0.149798 -4.30981e-16 0)
(0.151132 -4.30984e-16 0)
(0.152467 -4.3101e-16 0)
(0.153803 -4.3096e-16 0)
(0.155139 -4.30983e-16 0)
(0.156475 -4.31015e-16 0)
(0.15781 -4.30984e-16 0)
(0.159145 -4.3101e-16 0)
(0.160479 -4.31019e-16 0)
(0.16181 -4.31034e-16 0)
(0.16314 -4.30989e-16 0)
(0.164468 -4.30951e-16 0)
(0.165794 -4.31034e-16 0)
(0.167116 -4.30897e-16 0)
(0.168436 -4.30992e-16 0)
(0.169753 -4.30879e-16 0)
(0.171065 -4.30989e-16 0)
(0.172374 -4.30902e-16 0)
(0.173679 -4.3103e-16 0)
(0.174979 -4.3093e-16 0)
(0.176276 -4.30972e-16 0)
(0.177566 -4.31018e-16 0)
(0.178851 -4.30999e-16 0)
(0.180131 -4.30996e-16 0)
(0.181406 -4.30981e-16 0)
(0.182675 -4.31011e-16 0)
(0.183937 -4.30981e-16 0)
(0.185194 -4.30963e-16 0)
(0.186444 -4.31016e-16 0)
(0.187687 -4.30942e-16 0)
(0.188924 -4.31013e-16 0)
(0.190154 -4.31012e-16 0)
(0.191377 -4.31003e-16 0)
(0.192592 -4.31054e-16 0)
(0.1938 -4.30976e-16 0)
(0.195001 -4.30951e-16 0)
(0.196194 -4.30998e-16 0)
(0.197379 -4.31e-16 0)
(0.198557 -4.30932e-16 0)
(0.199727 -4.31003e-16 0)
(0.200888 -4.3095e-16 0)
(0.202043 -4.3095e-16 0)
(0.203189 -4.31006e-16 0)
(0.204326 -4.30929e-16 0)
(0.205456 -4.30913e-16 0)
(0.206577 -4.30936e-16 0)
(0.207691 -4.30904e-16 0)
(0.208796 -4.30993e-16 0)
(0.209892 -4.30947e-16 0)
(0.210981 -4.30947e-16 0)
(0.212061 -4.30887e-16 0)
(0.213133 -4.30952e-16 0)
(0.214197 -4.30923e-16 0)
(0.215252 -4.30891e-16 0)
(0.2163 -4.30903e-16 0)
(0.217339 -4.30887e-16 0)
(0.218369 -4.3084e-16 0)
(0.219392 -4.30761e-16 0)
(0.220407 -4.30733e-16 0)
(0.221414 -4.3076e-16 0)
(0.222413 -4.30736e-16 0)
(0.223404 -4.30751e-16 0)
(0.224387 -4.30691e-16 0)
(0.225363 -4.3072e-16 0)
(0.226331 -4.3065e-16 0)
(0.227291 -4.30764e-16 0)
(0.228244 -4.30698e-16 0)
(0.22919 -4.30742e-16 0)
(0.230128 -4.3074e-16 0)
(0.231059 -4.30741e-16 0)
(0.231983 -4.30794e-16 0)
(0.2329 -4.30706e-16 0)
(0.23381 -4.30728e-16 0)
(0.234714 -4.30727e-16 0)
(0.235611 -4.30738e-16 0)
(0.236501 -4.30691e-16 0)
(0.237386 -4.30742e-16 0)
(0.238263 -4.3073e-16 0)
(0.239135 -4.30713e-16 0)
(0.240001 -4.30705e-16 0)
(0.24086 -4.30709e-16 0)
(0.241714 -4.30703e-16 0)
(0.242562 -4.3064e-16 0)
(0.243405 -4.30634e-16 0)
(0.244243 -4.30608e-16 0)
(0.245075 -4.306e-16 0)
(0.245902 -4.30624e-16 0)
(0.246724 -4.30601e-16 0)
(0.247541 -4.3063e-16 0)
(0.248353 -4.30657e-16 0)
(0.249161 -4.30626e-16 0)
(0.249964 -4.30646e-16 0)
(0.250763 -4.30617e-16 0)
(0.251557 -4.30627e-16 0)
(0.252347 -4.30589e-16 0)
(0.253133 -4.30525e-16 0)
(0.253916 -4.30507e-16 0)
(0.254694 -4.30527e-16 0)
(0.255469 -4.30535e-16 0)
(0.256241 -4.30542e-16 0)
(0.257008 -4.30517e-16 0)
(0.257773 -4.3041e-16 0)
(0.258534 -4.30326e-16 0)
(0.259293 -4.3027e-16 0)
(0.260048 -4.30305e-16 0)
(0.2608 -4.30303e-16 0)
(0.261549 -4.30258e-16 0)
(0.262296 -4.30168e-16 0)
(0.26304 -4.30159e-16 0)
(0.263782 -4.3021e-16 0)
(0.264521 -4.30213e-16 0)
(0.265258 -4.30188e-16 0)
(0.265992 -4.30153e-16 0)
(0.266725 -4.3017e-16 0)
(0.267456 -4.30142e-16 0)
(0.268184 -4.30181e-16 0)
(0.268911 -4.30136e-16 0)
(0.269636 -4.30125e-16 0)
(0.27036 -4.30127e-16 0)
(0.271081 -4.30093e-16 0)
(0.271802 -4.30102e-16 0)
(0.272521 -4.30129e-16 0)
(0.273238 -4.30121e-16 0)
(0.273954 -4.30153e-16 0)
(0.274669 -4.30145e-16 0)
(0.275383 -4.30168e-16 0)
(0.276096 -4.30154e-16 0)
(0.276808 -4.30169e-16 0)
(0.277519 -4.30071e-16 0)
(0.278229 -4.30019e-16 0)
(0.278939 -4.30054e-16 0)
(0.279647 -4.30006e-16 0)
(0.280355 -4.29939e-16 0)
(0.281063 -4.2987e-16 0)
(0.28177 -4.29871e-16 0)
(0.282477 -4.29802e-16 0)
(0.283183 -4.29819e-16 0)
(0.283889 -4.29806e-16 0)
(0.284594 -4.29758e-16 0)
(0.2853 -4.2978e-16 0)
(0.286005 -4.29762e-16 0)
(0.28671 -4.29817e-16 0)
(0.287415 -4.29813e-16 0)
(0.288121 -4.29867e-16 0)
(0.288826 -4.29872e-16 0)
(0.289531 -4.29891e-16 0)
(0.290237 -4.29933e-16 0)
(0.290943 -4.29945e-16 0)
(0.291649 -4.29885e-16 0)
(0.292355 -4.29836e-16 0)
(0.293062 -4.29768e-16 0)
(0.293769 -4.29787e-16 0)
(0.294476 -4.29732e-16 0)
(0.295185 -4.29742e-16 0)
(0.295893 -4.29754e-16 0)
(0.296602 -4.2975e-16 0)
(0.297312 -4.29722e-16 0)
(0.298023 -4.29746e-16 0)
(0.298734 -4.29837e-16 0)
(0.299446 -4.29793e-16 0)
(0.300159 -4.29801e-16 0)
(0.300872 -4.29768e-16 0)
(0.301587 -4.29751e-16 0)
(0.302302 -4.29732e-16 0)
(0.303019 -4.29714e-16 0)
(0.303736 -4.29663e-16 0)
(0.304454 -4.2963e-16 0)
(0.305174 -4.29602e-16 0)
(0.305894 -4.2959e-16 0)
(0.306616 -4.2952e-16 0)
(0.307338 -4.29501e-16 0)
(0.308062 -4.29463e-16 0)
(0.308788 -4.29547e-16 0)
(0.309514 -4.29641e-16 0)
(0.310242 -4.2966e-16 0)
(0.31097 -4.29648e-16 0)
(0.311701 -4.29574e-16 0)
(0.312433 -4.29528e-16 0)
(0.313166 -4.29492e-16 0)
(0.3139 -4.29414e-16 0)
(0.314636 -4.29438e-16 0)
(0.315374 -4.2944e-16 0)
(0.316113 -4.29477e-16 0)
(0.316853 -4.29476e-16 0)
(0.317595 -4.29485e-16 0)
(0.318339 -4.29498e-16 0)
(0.319084 -4.29526e-16 0)
(0.319831 -4.29558e-16 0)
(0.32058 -4.29529e-16 0)
(0.32133 -4.29445e-16 0)
(0.322082 -4.29446e-16 0)
(0.322836 -4.29414e-16 0)
(0.323591 -4.29435e-16 0)
(0.324349 -4.2929e-16 0)
(0.325108 -4.29189e-16 0)
(0.325869 -4.2921e-16 0)
(0.326632 -4.29233e-16 0)
(0.327396 -4.29364e-16 0)
(0.328163 -4.29385e-16 0)
(0.328932 -4.29325e-16 0)
(0.329702 -4.29329e-16 0)
(0.330474 -4.29288e-16 0)
(0.331249 -4.29256e-16 0)
(0.332025 -4.29261e-16 0)
(0.332804 -4.29238e-16 0)
(0.333585 -4.29262e-16 0)
(0.334367 -4.29204e-16 0)
(0.335152 -4.29227e-16 0)
(0.335939 -4.29289e-16 0)
(0.336728 -4.29247e-16 0)
(0.337519 -4.29283e-16 0)
(0.338312 -4.29295e-16 0)
(0.339108 -4.29229e-16 0)
(0.339905 -4.29249e-16 0)
(0.340705 -4.29247e-16 0)
(0.341507 -4.29306e-16 0)
(0.342312 -4.292e-16 0)
(0.343118 -4.2905e-16 0)
(0.343927 -4.29011e-16 0)
(0.344739 -4.29048e-16 0)
(0.345552 -4.29008e-16 0)
(0.346368 -4.29002e-16 0)
(0.347187 -4.28996e-16 0)
(0.348007 -4.29013e-16 0)
(0.34883 -4.29101e-16 0)
(0.349656 -4.29185e-16 0)
(0.350484 -4.29164e-16 0)
(0.351314 -4.29141e-16 0)
(0.352147 -4.29133e-16 0)
(0.352982 -4.29103e-16 0)
(0.35382 -4.29116e-16 0)
(0.35466 -4.2911e-16 0)
(0.355503 -4.29007e-16 0)
(0.356348 -4.28905e-16 0)
(0.357196 -4.2876e-16 0)
(0.358046 -4.28649e-16 0)
(0.358899 -4.28662e-16 0)
(0.359755 -4.28671e-16 0)
(0.360613 -4.28696e-16 0)
(0.361473 -4.28582e-16 0)
(0.362337 -4.28541e-16 0)
(0.363203 -4.285e-16 0)
(0.364071 -4.28437e-16 0)
(0.364943 -4.28334e-16 0)
(0.365817 -4.28246e-16 0)
(0.366693 -4.28167e-16 0)
(0.367573 -4.28055e-16 0)
(0.368455 -4.28046e-16 0)
(0.369339 -4.28037e-16 0)
(0.370227 -4.28061e-16 0)
(0.371117 -4.27955e-16 0)
(0.37201 -4.27883e-16 0)
(0.372906 -4.27881e-16 0)
(0.373805 -4.27903e-16 0)
(0.374706 -4.27937e-16 0)
(0.375611 -4.27864e-16 0)
(0.376518 -4.27797e-16 0)
(0.377427 -4.27738e-16 0)
(0.37834 -4.27768e-16 0)
(0.379256 -4.27783e-16 0)
(0.380174 -4.27807e-16 0)
(0.381095 -4.27757e-16 0)
(0.38202 -4.27723e-16 0)
(0.382947 -4.27849e-16 0)
(0.383877 -4.27965e-16 0)
(0.38481 -4.27989e-16 0)
(0.385746 -4.27873e-16 0)
(0.386684 -4.27837e-16 0)
(0.387626 -4.27878e-16 0)
(0.388571 -4.2789e-16 0)
(0.389518 -4.27831e-16 0)
(0.390469 -4.27799e-16 0)
(0.391423 -4.27734e-16 0)
(0.392379 -4.27755e-16 0)
(0.393339 -4.27719e-16 0)
(0.394302 -4.27629e-16 0)
(0.395267 -4.27583e-16 0)
(0.396236 -4.27727e-16 0)
(0.397208 -4.27903e-16 0)
(0.398183 -4.27802e-16 0)
(0.399161 -4.27682e-16 0)
(0.400142 -4.27705e-16 0)
(0.401126 -4.27693e-16 0)
(0.402113 -4.27587e-16 0)
(0.403103 -4.27344e-16 0)
(0.404096 -4.27197e-16 0)
(0.405093 -4.27204e-16 0)
(0.406092 -4.27231e-16 0)
(0.407095 -4.27214e-16 0)
(0.408101 -4.27078e-16 0)
(0.40911 -4.26973e-16 0)
(0.410122 -4.26959e-16 0)
(0.411137 -4.26908e-16 0)
(0.412156 -4.26833e-16 0)
(0.413178 -4.26794e-16 0)
(0.414203 -4.2675e-16 0)
(0.415231 -4.26664e-16 0)
(0.416262 -4.2655e-16 0)
(0.417296 -4.26557e-16 0)
(0.418334 -4.26521e-16 0)
(0.419375 -4.26543e-16 0)
(0.420419 -4.26815e-16 0)
(0.421467 -4.27129e-16 0)
(0.422517 -4.27136e-16 0)
(0.423571 -4.27098e-16 0)
(0.424628 -4.27062e-16 0)
(0.425689 -4.27002e-16 0)
(0.426752 -4.26946e-16 0)
(0.427819 -4.26827e-16 0)
(0.42889 -4.26828e-16 0)
(0.429963 -4.26843e-16 0)
(0.43104 -4.26807e-16 0)
(0.432121 -4.26745e-16 0)
(0.433204 -4.26716e-16 0)
(0.434291 -4.26914e-16 0)
(0.435381 -4.27173e-16 0)
(0.436475 -4.27277e-16 0)
(0.437572 -4.27342e-16 0)
(0.438672 -4.27313e-16 0)
(0.439775 -4.27254e-16 0)
(0.440882 -4.27237e-16 0)
(0.441993 -4.27266e-16 0)
(0.443106 -4.27196e-16 0)
(0.444223 -4.27183e-16 0)
(0.445344 -4.27189e-16 0)
(0.446468 -4.27062e-16 0)
(0.447595 -4.27017e-16 0)
(0.448726 -4.26946e-16 0)
(0.44986 -4.26877e-16 0)
(0.450997 -4.26902e-16 0)
(0.452138 -4.26925e-16 0)
(0.453283 -4.26948e-16 0)
(0.454431 -4.26922e-16 0)
(0.455582 -4.26873e-16 0)
(0.456737 -4.26826e-16 0)
(0.457895 -4.26912e-16 0)
(0.459057 -4.26961e-16 0)
(0.460223 -4.26863e-16 0)
(0.461392 -4.26621e-16 0)
(0.462564 -4.26344e-16 0)
(0.46374 -4.26282e-16 0)
(0.464919 -4.26265e-16 0)
(0.466102 -4.26119e-16 0)
(0.467288 -4.25707e-16 0)
(0.468478 -4.25336e-16 0)
(0.469671 -4.25127e-16 0)
(0.470868 -4.2494e-16 0)
(0.472068 -4.24698e-16 0)
(0.473272 -4.24418e-16 0)
(0.474479 -4.24289e-16 0)
(0.47569 -4.24151e-16 0)
(0.476905 -4.24123e-16 0)
(0.478122 -4.24188e-16 0)
(0.479344 -4.24248e-16 0)
(0.480569 -4.24307e-16 0)
(0.481797 -4.24273e-16 0)
(0.483029 -4.24193e-16 0)
(0.484265 -4.24228e-16 0)
(0.485504 -4.24334e-16 0)
(0.486747 -4.24229e-16 0)
(0.487993 -4.23997e-16 0)
(0.489243 -4.24031e-16 0)
(0.490496 -4.24258e-16 0)
(0.491753 -4.24515e-16 0)
(0.493014 -4.24663e-16 0)
(0.494278 -4.24821e-16 0)
(0.495546 -4.24742e-16 0)
(0.496817 -4.24549e-16 0)
(0.498092 -4.24592e-16 0)
(0.499371 -4.24571e-16 0)
(0.500653 -4.24499e-16 0)
(0.501939 -4.24553e-16 0)
(0.503228 -4.2466e-16 0)
(0.504521 -4.24452e-16 0)
(0.505817 -4.24382e-16 0)
(0.507118 -4.24288e-16 0)
(0.508422 -4.24221e-16 0)
(0.509729 -4.24181e-16 0)
(0.511039 -4.24108e-16 0)
(0.512354 -4.2409e-16 0)
(0.513673 -4.24185e-16 0)
(0.514995 -4.24174e-16 0)
(0.51632 -4.24101e-16 0)
(0.51765 -4.24072e-16 0)
(0.518983 -4.23993e-16 0)
(0.52032 -4.23387e-16 0)
(0.521661 -4.22453e-16 0)
(0.523003 -4.21928e-16 0)
(0.524351 -4.21846e-16 0)
(0.525703 -4.2212e-16 0)
(0.527057 -4.22248e-16 0)
(0.528415 -4.22217e-16 0)
(0.529777 -4.22089e-16 0)
(0.531144 -4.2146e-16 0)
(0.532514 -4.21068e-16 0)
(0.533887 -4.21139e-16 0)
(0.535263 -4.21143e-16 0)
(0.536643 -4.21168e-16 0)
(0.538027 -4.2128e-16 0)
(0.539416 -4.20599e-16 0)
(0.540807 -4.20018e-16 0)
(0.542202 -4.1963e-16 0)
(0.543601 -4.19611e-16 0)
(0.545004 -4.19785e-16 0)
(0.54641 -4.19777e-16 0)
(0.54782 -4.19026e-16 0)
(0.549233 -4.18161e-16 0)
(0.550651 -4.18017e-16 0)
(0.552072 -4.18102e-16 0)
(0.553498 -4.18223e-16 0)
(0.554926 -4.185e-16 0)
(0.556358 -4.18485e-16 0)
(0.557794 -4.1832e-16 0)
(0.559234 -4.18718e-16 0)
(0.560677 -4.19019e-16 0)
(0.562124 -4.19085e-16 0)
(0.563575 -4.18985e-16 0)
(0.56503 -4.18828e-16 0)
(0.566488 -4.18116e-16 0)
(0.567949 -4.1725e-16 0)
(0.569414 -4.15943e-16 0)
(0.570883 -4.14761e-16 0)
(0.572356 -4.14794e-16 0)
(0.573833 -4.15117e-16 0)
(0.575314 -4.15172e-16 0)
(0.576798 -4.1552e-16 0)
(0.578286 -4.15578e-16 0)
(0.579778 -4.15558e-16 0)
(0.581274 -4.15404e-16 0)
(0.582773 -4.15367e-16 0)
(0.584275 -4.14883e-16 0)
(0.585782 -4.14608e-16 0)
(0.587292 -4.14624e-16 0)
(0.588806 -4.14625e-16 0)
(0.590323 -4.14343e-16 0)
(0.591845 -4.14202e-16 0)
(0.593369 -4.14033e-16 0)
(0.594899 -4.13716e-16 0)
(0.596431 -4.13789e-16 0)
(0.597967 -4.13577e-16 0)
(0.599507 -4.13255e-16 0)
(0.601052 -4.13093e-16 0)
(0.602599 -4.13326e-16 0)
(0.604149 -4.13536e-16 0)
(0.605704 -4.138e-16 0)
(0.607264 -4.13695e-16 0)
(0.608826 -4.13281e-16 0)
(0.610392 -4.1278e-16 0)
(0.611962 -4.12142e-16 0)
(0.613535 -4.11782e-16 0)
(0.615111 -4.11469e-16 0)
(0.616693 -4.11233e-16 0)
(0.618278 -4.11594e-16 0)
(0.619866 -4.12045e-16 0)
(0.621457 -4.12133e-16 0)
(0.623054 -4.12166e-16 0)
(0.624654 -4.12862e-16 0)
(0.626257 -4.1359e-16 0)
(0.627864 -4.13522e-16 0)
(0.629474 -4.1305e-16 0)
(0.631089 -4.12592e-16 0)
(0.632707 -4.1238e-16 0)
(0.634329 -4.12269e-16 0)
(0.635954 -4.12238e-16 0)
(0.637583 -4.12161e-16 0)
(0.639215 -4.12068e-16 0)
(0.640852 -4.12109e-16 0)
(0.642492 -4.12214e-16 0)
(0.644137 -4.1201e-16 0)
(0.645785 -4.12021e-16 0)
(0.647436 -4.1188e-16 0)
(0.649091 -4.1158e-16 0)
(0.650749 -4.10847e-16 0)
(0.652412 -4.10595e-16 0)
(0.654078 -4.11561e-16 0)
(0.655748 -4.12149e-16 0)
(0.657421 -4.12124e-16 0)
(0.659099 -4.11671e-16 0)
(0.66078 -4.11213e-16 0)
(0.662464 -4.11004e-16 0)
(0.664152 -4.1103e-16 0)
(0.665843 -4.11147e-16 0)
(0.667539 -4.1069e-16 0)
(0.669238 -4.09838e-16 0)
(0.670941 -4.0943e-16 0)
(0.672648 -4.08377e-16 0)
(0.674358 -4.07237e-16 0)
(0.676071 -4.06902e-16 0)
(0.677789 -4.06808e-16 0)
(0.67951 -4.06693e-16 0)
(0.681234 -4.06349e-16 0)
(0.682963 -4.06394e-16 0)
(0.684695 -4.05887e-16 0)
(0.68643 -4.05379e-16 0)
(0.688169 -4.05186e-16 0)
(0.689912 -4.04654e-16 0)
(0.691659 -4.04268e-16 0)
(0.693409 -4.04011e-16 0)
(0.695163 -4.04566e-16 0)
(0.69692 -4.0492e-16 0)
(0.69868 -4.04868e-16 0)
(0.700444 -4.04112e-16 0)
(0.702213 -4.03259e-16 0)
(0.703985 -4.03331e-16 0)
(0.70576 -4.03562e-16 0)
(0.707539 -4.03743e-16 0)
(0.709321 -4.04031e-16 0)
(0.711107 -4.0351e-16 0)
(0.712896 -4.02715e-16 0)
(0.714689 -4.01615e-16 0)
(0.716486 -4.00774e-16 0)
(0.718286 -4.00681e-16 0)
(0.72009 -4.00659e-16 0)
(0.721897 -4.01154e-16 0)
(0.723707 -4.01404e-16 0)
(0.725522 -4.01647e-16 0)
(0.72734 -4.01898e-16 0)
(0.729161 -4.0194e-16 0)
(0.730986 -4.01656e-16 0)
(0.732814 -4.01274e-16 0)
(0.734647 -4.01093e-16 0)
(0.736482 -4.01055e-16 0)
(0.73832 -4.01051e-16 0)
(0.740162 -4.01195e-16 0)
(0.742009 -4.01357e-16 0)
(0.743858 -4.00314e-16 0)
(0.74571 -3.99122e-16 0)
(0.747566 -3.98929e-16 0)
(0.749426 -3.98533e-16 0)
(0.751289 -3.98113e-16 0)
(0.753155 -3.97966e-16 0)
(0.755025 -3.97574e-16 0)
(0.756898 -3.96655e-16 0)
(0.758774 -3.95391e-16 0)
(0.760654 -3.94428e-16 0)
(0.762537 -3.9402e-16 0)
(0.764424 -3.93264e-16 0)
(0.766315 -3.92196e-16 0)
(0.768208 -3.91131e-16 0)
(0.770104 -3.90321e-16 0)
(0.772004 -3.90326e-16 0)
(0.773908 -3.90508e-16 0)
(0.775815 -3.90482e-16 0)
(0.777725 -3.90434e-16 0)
(0.779638 -3.89112e-16 0)
(0.781555 -3.87681e-16 0)
(0.783475 -3.87304e-16 0)
(0.785398 -3.87535e-16 0)
(0.787324 -3.87554e-16 0)
(0.789255 -3.86935e-16 0)
(0.791188 -3.86738e-16 0)
(0.793124 -3.86889e-16 0)
(0.795063 -3.87029e-16 0)
(0.797006 -3.86825e-16 0)
(0.798952 -3.86082e-16 0)
(0.800901 -3.85029e-16 0)
(0.802854 -3.84353e-16 0)
(0.804809 -3.84222e-16 0)
(0.806768 -3.84229e-16 0)
(0.80873 -3.84129e-16 0)
(0.810695 -3.84789e-16 0)
(0.812662 -3.85058e-16 0)
(0.814634 -3.84271e-16 0)
(0.816608 -3.82321e-16 0)
(0.818586 -3.81022e-16 0)
(0.820566 -3.8086e-16 0)
(0.82255 -3.80129e-16 0)
(0.824536 -3.798e-16 0)
(0.826525 -3.79526e-16 0)
(0.828518 -3.79046e-16 0)
(0.830514 -3.78803e-16 0)
(0.832512 -3.77995e-16 0)
(0.834513 -3.76057e-16 0)
(0.836518 -3.74203e-16 0)
(0.838526 -3.73506e-16 0)
(0.840536 -3.73442e-16 0)
(0.84255 -3.73683e-16 0)
(0.844566 -3.73669e-16 0)
(0.846585 -3.73429e-16 0)
(0.848607 -3.73746e-16 0)
(0.850633 -3.73932e-16 0)
(0.85266 -3.73876e-16 0)
(0.85469 -3.73723e-16 0)
(0.856723 -3.73673e-16 0)
(0.85876 -3.73988e-16 0)
(0.860799 -3.73702e-16 0)
(0.862841 -3.72641e-16 0)
(0.864885 -3.7234e-16 0)
(0.866932 -3.71696e-16 0)
(0.868983 -3.69704e-16 0)
(0.871036 -3.67755e-16 0)
(0.873091 -3.67501e-16 0)
(0.875148 -3.67579e-16 0)
(0.877209 -3.66427e-16 0)
(0.879272 -3.64952e-16 0)
(0.881338 -3.63162e-16 0)
(0.883406 -3.6144e-16 0)
(0.885477 -3.60934e-16 0)
(0.887551 -3.61136e-16 0)
(0.889627 -3.61824e-16 0)
(0.891705 -3.62973e-16 0)
(0.893786 -3.62854e-16 0)
(0.895869 -3.6252e-16 0)
(0.897955 -3.62714e-16 0)
(0.900043 -3.62827e-16 0)
(0.902134 -3.63088e-16 0)
(0.904227 -3.63349e-16 0)
(0.906323 -3.631e-16 0)
(0.90842 -3.63564e-16 0)
(0.91052 -3.64378e-16 0)
(0.912622 -3.6537e-16 0)
(0.914727 -3.65389e-16 0)
(0.916833 -3.64485e-16 0)
(0.918942 -3.63396e-16 0)
(0.921054 -3.60657e-16 0)
(0.923167 -3.58767e-16 0)
(0.925283 -3.59935e-16 0)
(0.9274 -3.60453e-16 0)
(0.929519 -3.58665e-16 0)
(0.931641 -3.57597e-16 0)
(0.933764 -3.5748e-16 0)
(0.93589 -3.57167e-16 0)
(0.938017 -3.56266e-16 0)
(0.940147 -3.54901e-16 0)
(0.942279 -3.53989e-16 0)
(0.944412 -3.54236e-16 0)
(0.946547 -3.54963e-16 0)
(0.948683 -3.54747e-16 0)
(0.950821 -3.53844e-16 0)
(0.952962 -3.5395e-16 0)
(0.955104 -3.55336e-16 0)
(0.957248 -3.55553e-16 0)
(0.959393 -3.548e-16 0)
(0.96154 -3.5438e-16 0)
(0.963689 -3.54446e-16 0)
(0.965839 -3.54082e-16 0)
(0.967991 -3.5198e-16 0)
(0.970144 -3.50109e-16 0)
(0.972299 -3.50142e-16 0)
(0.974455 -3.50441e-16 0)
(0.976612 -3.49983e-16 0)
(0.978771 -3.48946e-16 0)
(0.980931 -3.48571e-16 0)
(0.983092 -3.49698e-16 0)
(0.985255 -3.49619e-16 0)
(0.987418 -3.48884e-16 0)
(0.989583 -3.4896e-16 0)
(0.991748 -3.48879e-16 0)
(0.993916 -3.48095e-16 0)
(0.996084 -3.47543e-16 0)
(0.998253 -3.47619e-16 0)
(1.00042 -3.48668e-16 0)
(1.00259 -3.48631e-16 0)
(1.00477 -3.45917e-16 0)
(1.00694 -3.42495e-16 0)
(1.00911 -3.40338e-16 0)
(1.01128 -3.40353e-16 0)
(1.01346 -3.39432e-16 0)
(1.01563 -3.38311e-16 0)
(1.01781 -3.37123e-16 0)
(1.01999 -3.35945e-16 0)
(1.02216 -3.3605e-16 0)
(1.02434 -3.3298e-16 0)
(1.02652 -3.28446e-16 0)
(1.0287 -3.24964e-16 0)
(1.03087 -3.22161e-16 0)
(1.03305 -3.19332e-16 0)
(1.03523 -3.13943e-16 0)
(1.03741 -3.10983e-16 0)
(1.03959 -3.12346e-16 0)
(1.04177 -3.13637e-16 0)
(1.04394 -3.12849e-16 0)
(1.04612 -3.12668e-16 0)
(1.0483 -3.13397e-16 0)
(1.05048 -3.13526e-16 0)
(1.05266 -3.1357e-16 0)
(1.05483 -3.13009e-16 0)
(1.05701 -3.13504e-16 0)
(1.05919 -3.14237e-16 0)
(1.06136 -3.15303e-16 0)
(1.06354 -3.14904e-16 0)
(1.06571 -3.11278e-16 0)
(1.06789 -3.05974e-16 0)
(1.07006 -2.99631e-16 0)
(1.07223 -2.94801e-16 0)
(1.0744 -2.92586e-16 0)
(1.07657 -2.92948e-16 0)
(1.07874 -2.92998e-16 0)
(1.08091 -2.92046e-16 0)
(1.08308 -2.90124e-16 0)
(1.08524 -2.89055e-16 0)
(1.08741 -2.89612e-16 0)
(1.08957 -2.88157e-16 0)
(1.09173 -2.83734e-16 0)
(1.09389 -2.80304e-16 0)
(1.09604 -2.80591e-16 0)
(1.0982 -2.80634e-16 0)
(1.10035 -2.80754e-16 0)
(1.10251 -2.80822e-16 0)
(1.10466 -2.79333e-16 0)
(1.1068 -2.78365e-16 0)
(1.10895 -2.76738e-16 0)
(1.11109 -2.75034e-16 0)
(1.11323 -2.75748e-16 0)
(1.11537 -2.77773e-16 0)
(1.11751 -2.76823e-16 0)
(1.11964 -2.7183e-16 0)
(1.12177 -2.6853e-16 0)
(1.1239 -2.69249e-16 0)
(1.12602 -2.69582e-16 0)
(1.12814 -2.6739e-16 0)
(1.13026 -2.62849e-16 0)
(1.13237 -2.61466e-16 0)
(1.13448 -2.65261e-16 0)
(1.13659 -2.66448e-16 0)
(1.1387 -2.63606e-16 0)
(1.1408 -2.62958e-16 0)
(1.14289 -2.62869e-16 0)
(1.14499 -2.59234e-16 0)
(1.14707 -2.49506e-16 0)
(1.14916 -2.41542e-16 0)
(1.15124 -2.35617e-16 0)
(1.15331 -2.29083e-16 0)
(1.15539 -2.27118e-16 0)
(1.15745 -2.25319e-16 0)
(1.15951 -2.22821e-16 0)
(1.16157 -2.19563e-16 0)
(1.16362 -2.19361e-16 0)
(1.16567 -2.23581e-16 0)
(1.16771 -2.26945e-16 0)
(1.16975 -2.26984e-16 0)
(1.17178 -2.2624e-16 0)
(1.1738 -2.25442e-16 0)
(1.17582 -2.2452e-16 0)
(1.17783 -2.23135e-16 0)
(1.17984 -2.20147e-16 0)
(1.18184 -2.19159e-16 0)
(1.18384 -2.21019e-16 0)
(1.18582 -2.22819e-16 0)
(1.18781 -2.22255e-16 0)
(1.18978 -2.22569e-16 0)
(1.19175 -2.25898e-16 0)
(1.19371 -2.27933e-16 0)
(1.19566 -2.27253e-16 0)
(1.19761 -2.2615e-16 0)
(1.19954 -2.26182e-16 0)
(1.20147 -2.26341e-16 0)
(1.2034 -2.27159e-16 0)
(1.20531 -2.28078e-16 0)
(1.20722 -2.28016e-16 0)
(1.20911 -2.26931e-16 0)
(1.211 -2.25104e-16 0)
(1.21288 -2.22951e-16 0)
(1.21475 -2.21711e-16 0)
(1.21662 -2.1941e-16 0)
(1.21847 -2.16117e-16 0)
(1.22031 -2.15248e-16 0)
(1.22214 -2.13075e-16 0)
(1.22397 -2.10058e-16 0)
(1.22578 -2.09374e-16 0)
(1.22759 -2.14096e-16 0)
(1.22938 -2.18508e-16 0)
(1.23116 -2.15774e-16 0)
(1.23293 -2.1189e-16 0)
(1.23469 -2.042e-16 0)
(1.23644 -1.97076e-16 0)
(1.23818 -1.92605e-16 0)
(1.23991 -1.86907e-16 0)
(1.24162 -1.87907e-16 0)
(1.24332 -1.93917e-16 0)
(1.24501 -2.01555e-16 0)
(1.24669 -2.05355e-16 0)
(1.24836 -2.02823e-16 0)
(1.25001 -2.02526e-16 0)
(1.25165 -2.04521e-16 0)
(1.25328 -2.04429e-16 0)
(1.25489 -2.05285e-16 0)
(1.25649 -2.08009e-16 0)
(1.25807 -2.09073e-16 0)
(1.25964 -2.09207e-16 0)
(1.2612 -2.1576e-16 0)
(1.26274 -2.21506e-16 0)
(1.26427 -2.20799e-16 0)
(1.26578 -2.20494e-16 0)
(1.26728 -2.18907e-16 0)
(1.26876 -2.12281e-16 0)
(1.27023 -2.04727e-16 0)
(1.27167 -2.07026e-16 0)
(1.27311 -2.11802e-16 0)
(1.27453 -2.1175e-16 0)
(1.27593 -2.11388e-16 0)
(1.27731 -2.08518e-16 0)
(1.27867 -2.07833e-16 0)
(1.28002 -2.0981e-16 0)
(1.28135 -2.08111e-16 0)
(1.28267 -2.01179e-16 0)
(1.28396 -1.98086e-16 0)
(1.28524 -1.99955e-16 0)
(1.2865 -1.97627e-16 0)
(1.28774 -1.89178e-16 0)
(1.28896 -1.87057e-16 0)
(1.29016 -1.89657e-16 0)
(1.29134 -1.85932e-16 0)
(1.2925 -1.80696e-16 0)
(1.29364 -1.72285e-16 0)
(1.29476 -1.62788e-16 0)
(1.29586 -1.57864e-16 0)
(1.29694 -1.56029e-16 0)
(1.29799 -1.52046e-16 0)
(1.29903 -1.45845e-16 0)
(1.30004 -1.39674e-16 0)
(1.30104 -1.25685e-16 0)
(1.30201 -1.0646e-16 0)
(1.30295 -9.93245e-17 0)
(1.30388 -9.97827e-17 0)
(1.30478 -9.28354e-17 0)
(1.30565 -8.58749e-17 0)
(1.30651 -8.42822e-17 0)
(1.30734 -8.44905e-17 0)
(1.30814 -8.5932e-17 0)
(1.30892 -8.96391e-17 0)
(1.30968 -8.90758e-17 0)
(1.31041 -7.97904e-17 0)
(1.31111 -6.45309e-17 0)
(1.31179 -5.03328e-17 0)
(1.31245 -4.1316e-17 0)
(1.31307 -3.46818e-17 0)
(1.31367 -3.35006e-17 0)
(1.31424 -3.33636e-17 0)
(1.31479 -3.63499e-17 0)
(1.3153 -3.81678e-17 0)
(1.31579 -3.18865e-17 0)
(1.31625 -2.48806e-17 0)
(1.31669 -2.06247e-17 0)
(1.31709 -1.32365e-17 0)
(1.31746 -8.05094e-18 0)
(1.3178 -7.26151e-18 0)
(1.31812 -8.94673e-18 0)
(1.3184 -1.01172e-17 0)
(1.31865 -8.33843e-18 0)
(1.31887 -8.15198e-18 0)
(1.31905 -7.20366e-18 0)
(1.31921 -8.20935e-18 0)
(1.31933 -1.05563e-17 0)
(1.31942 -1.60416e-17 0)
(1.31948 -1.66608e-18 0)
)
;

boundaryField
{
    INLET
    {
        type            cyclic;
    }
    OUTLET
    {
        type            cyclic;
    }
    CENTER
    {
        type            symmetryPlane;
    }
    WALL
    {
        type            noSlip;
    }
    frontAndBackPlanes
    {
        type            empty;
    }
}


// ************************************************************************* //
