/*--------------------------------*- C++ -*----------------------------------*\
| =========                 |                                                 |
| \\      /  F ield         | OpenFOAM: The Open Source CFD Toolbox           |
|  \\    /   O peration     | Version:  v1806                                 |
|   \\  /    A nd           | Web:      www.OpenFOAM.com                      |
|    \\/     M anipulation  |                                                 |
\*---------------------------------------------------------------------------*/
FoamFile
{
    version     2.0;
    format      ascii;
    class       volScalarField;
    location    "10000";
    object      epsilon;
}
// * * * * * * * * * * * * * * * * * * * * * * * * * * * * * * * * * * * * * //

dimensions      [0 2 -3 0 0 0 0];


internalField   nonuniform List<scalar> 
320
(
1.57323e-05
1.57323e-05
1.57323e-05
1.57323e-05
1.57323e-05
1.57323e-05
1.57323e-05
1.57323e-05
1.57323e-05
1.57323e-05
5.66178e-05
5.66178e-05
5.66179e-05
5.6618e-05
5.6618e-05
5.6618e-05
5.6618e-05
5.6618e-05
5.6618e-05
5.6618e-05
0.000111729
0.000111729
0.000111729
0.000111729
0.000111729
0.000111729
0.000111729
0.000111729
0.000111729
0.000111729
0.000186569
0.000186569
0.000186569
0.000186569
0.000186569
0.000186569
0.000186569
0.000186569
0.000186569
0.000186569
0.00028933
0.00028933
0.00028933
0.000289331
0.000289331
0.000289331
0.000289331
0.000289331
0.000289331
0.000289331
0.000432163
0.000432163
0.000432163
0.000432163
0.000432163
0.000432164
0.000432164
0.000432164
0.000432164
0.000432163
0.00063389
0.000633889
0.00063389
0.00063389
0.00063389
0.00063389
0.00063389
0.00063389
0.00063389
0.00063389
0.000928332
0.000928332
0.000928332
0.000928332
0.000928332
0.000928332
0.000928332
0.000928332
0.000928332
0.000928332
0.00137913
0.00137913
0.00137913
0.00137913
0.00137913
0.00137913
0.00137913
0.00137913
0.00137913
0.00137913
0.00206852
0.00206852
0.00206852
0.00206852
0.00206852
0.00206852
0.00206852
0.00206852
0.00206852
0.00206852
0.00307882
0.00307882
0.00307882
0.00307882
0.00307881
0.00307881
0.00307881
0.00307881
0.00307881
0.00307881
0.0043841
0.0043841
0.0043841
0.0043841
0.0043841
0.0043841
0.0043841
0.00438409
0.00438409
0.00438409
0.00566442
0.00566442
0.00566442
0.00566442
0.00566442
0.00566441
0.00566441
0.00566441
0.00566441
0.0056644
0.00645437
0.00645436
0.00645436
0.00645436
0.00645436
0.00645436
0.00645436
0.00645435
0.00645436
0.00645435
0.00658912
0.00658911
0.00658911
0.00658911
0.00658911
0.00658911
0.00658911
0.0065891
0.0065891
0.0065891
0.00622426
0.00622426
0.00622426
0.00622426
0.00622425
0.00622425
0.00622425
0.00622425
0.00622425
0.00622424
0.00559322
0.00559322
0.00559322
0.00559322
0.00559321
0.00559321
0.00559321
0.00559321
0.00559321
0.0055932
0.0048731
0.0048731
0.0048731
0.0048731
0.00487309
0.0048731
0.0048731
0.00487309
0.00487309
0.00487309
0.00416572
0.00416571
0.00416571
0.00416571
0.00416571
0.00416571
0.00416571
0.00416571
0.00416571
0.00416571
0.0035184
0.00351839
0.0035184
0.00351839
0.00351839
0.00351839
0.00351839
0.00351839
0.00351839
0.00351839
0.00294703
0.00294703
0.00294703
0.00294703
0.00294703
0.00294703
0.00294703
0.00294703
0.00294703
0.00294703
0.0024518
0.0024518
0.0024518
0.0024518
0.0024518
0.0024518
0.0024518
0.0024518
0.0024518
0.0024518
0.00202612
0.00202612
0.00202612
0.00202612
0.00202612
0.00202612
0.00202612
0.00202611
0.00202611
0.00202611
0.00166118
0.00166118
0.00166118
0.00166118
0.00166118
0.00166118
0.00166118
0.00166118
0.00166118
0.00166118
0.00134812
0.00134812
0.00134812
0.00134812
0.00134812
0.00134811
0.00134811
0.00134811
0.00134811
0.00134811
0.00107893
0.00107893
0.00107893
0.00107893
0.00107893
0.00107893
0.00107893
0.00107893
0.00107893
0.00107893
0.000846924
0.000846924
0.000846924
0.000846924
0.000846923
0.000846923
0.000846923
0.000846923
0.000846923
0.000846923
0.000646966
0.000646965
0.000646965
0.000646965
0.000646965
0.000646965
0.000646965
0.000646965
0.000646965
0.000646965
0.00047607
0.00047607
0.00047607
0.00047607
0.00047607
0.00047607
0.00047607
0.00047607
0.00047607
0.00047607
0.000334536
0.000334536
0.000334536
0.000334536
0.000334536
0.000334536
0.000334536
0.000334536
0.000334536
0.000334536
0.000227684
0.000227684
0.000227684
0.000227684
0.000227684
0.000227684
0.000227684
0.000227684
0.000227684
0.000227684
0.000166307
0.000166306
0.000166307
0.000166307
0.000166307
0.000166307
0.000166307
0.000166307
0.000166307
0.000166307
)
;

boundaryField
{
    INLET
    {
        type            cyclic;
    }
    OUTLET
    {
        type            cyclic;
    }
    WALL
    {
        type            fixedValue;
        value           uniform 1e-08;
    }
    CENTER
    {
        type            symmetryPlane;
    }
    frontAndBackPlanes
    {
        type            empty;
    }
}


// ************************************************************************* //
