/*--------------------------------*- C++ -*----------------------------------*\
| =========                 |                                                 |
| \\      /  F ield         | OpenFOAM: The Open Source CFD Toolbox           |
|  \\    /   O peration     | Version:  v1806                                 |
|   \\  /    A nd           | Web:      www.OpenFOAM.com                      |
|    \\/     M anipulation  |                                                 |
\*---------------------------------------------------------------------------*/
FoamFile
{
    version     2.0;
    format      ascii;
    class       volTensorField;
    location    "10000";
    object      grad(U);
}
// * * * * * * * * * * * * * * * * * * * * * * * * * * * * * * * * * * * * * //

dimensions      [0 0 -1 0 0 0 0];


internalField   nonuniform List<tensor> 
320
(
(-1.33845e-08 2.68495e-11 0 10.7245 1.65618e-08 0 0 0 0)
(-1.03897e-08 -4.34264e-11 0 10.7245 1.10752e-08 0 0 0 0)
(-2.5799e-09 -1.39654e-11 0 10.7245 2.77123e-09 0 0 0 0)
(-4.03063e-09 2.13206e-11 0 10.7245 4.34065e-09 0 0 0 0)
(-8.01451e-09 -9.29191e-12 0 10.7245 9.60575e-09 0 0 0 0)
(4.315e-12 -6.90655e-11 0 10.7245 2.6905e-10 0 0 0 0)
(1.19013e-08 -3.2279e-11 0 10.7245 -1.46702e-08 0 0 0 0)
(1.38885e-08 5.349e-12 0 10.7245 -1.47079e-08 0 0 0 0)
(1.20776e-08 2.86868e-11 0 10.7245 -1.42684e-08 0 0 0 0)
(5.27591e-10 8.58223e-11 0 10.7245 -9.76999e-10 0 0 0 0)
(-3.82857e-08 3.90784e-10 0 10.7057 3.97694e-08 0 0 0 0)
(-3.07196e-08 -4.325e-10 0 10.7057 2.91488e-08 0 0 0 0)
(-8.18051e-09 -2.1956e-10 0 10.7057 7.85531e-09 0 0 0 0)
(-1.16974e-08 2.14577e-10 0 10.7057 1.11558e-08 0 0 0 0)
(-2.32494e-08 -1.31763e-10 0 10.7057 2.36678e-08 0 0 0 0)
(-6.55591e-10 -7.69853e-10 0 10.7057 1.10386e-09 0 0 0 0)
(3.40806e-08 -4.86869e-10 0 10.7057 -3.53217e-08 0 0 0 0)
(4.08974e-08 7.89185e-12 0 10.7057 -3.86565e-08 0 0 0 0)
(3.56351e-08 4.47408e-10 0 10.7057 -3.59707e-08 0 0 0 0)
(2.17523e-09 9.79883e-10 0 10.7057 -2.75195e-09 0 0 0 0)
(-6.19722e-08 1.25824e-09 0 10.6836 6.46853e-08 0 0 0 0)
(-5.14049e-08 -1.27151e-09 0 10.6836 4.95385e-08 0 0 0 0)
(-1.45905e-08 -7.08459e-10 0 10.6836 1.42299e-08 0 0 0 0)
(-1.92233e-08 6.29729e-10 0 10.6836 1.8623e-08 0 0 0 0)
(-3.82169e-08 -3.96113e-10 0 10.6836 3.91633e-08 0 0 0 0)
(-2.23021e-09 -2.34185e-09 0 10.6836 2.86622e-09 0 0 0 0)
(5.52193e-08 -1.56691e-09 0 10.6836 -5.75299e-08 0 0 0 0)
(6.82051e-08 -2.1224e-11 0 10.6836 -6.55487e-08 0 0 0 0)
(5.95603e-08 1.41324e-09 0 10.6836 -6.05486e-08 0 0 0 0)
(4.65326e-09 3.00486e-09 0 10.6836 -5.47893e-09 0 0 0 0)
(-8.30168e-08 2.81739e-09 0 10.6575 8.73584e-08 0 0 0 0)
(-7.14539e-08 -2.65124e-09 0 10.6575 6.94716e-08 0 0 0 0)
(-2.166e-08 -1.5829e-09 0 10.6575 2.12637e-08 0 0 0 0)
(-2.62425e-08 1.31092e-09 0 10.6575 2.56775e-08 0 0 0 0)
(-5.22052e-08 -8.24298e-10 0 10.6575 5.38942e-08 0 0 0 0)
(-4.89904e-09 -5.02735e-09 0 10.6575 5.68283e-09 0 0 0 0)
(7.40585e-08 -3.50418e-09 0 10.6575 -7.77736e-08 0 0 0 0)
(9.46108e-08 -1.28076e-10 0 10.6575 -9.18247e-08 0 0 0 0)
(8.28235e-08 3.09399e-09 0 10.6575 -8.47427e-08 0 0 0 0)
(7.98463e-09 6.49574e-09 0 10.6575 -9.00725e-09 0 0 0 0)
(-9.97145e-08 5.22889e-09 0 10.6257 1.05617e-07 0 0 0 0)
(-8.92583e-08 -4.60539e-09 0 10.6257 8.66534e-08 0 0 0 0)
(-2.88988e-08 -2.92356e-09 0 10.6257 2.82707e-08 0 0 0 0)
(-3.22988e-08 2.27563e-09 0 10.6257 3.15114e-08 0 0 0 0)
(-6.43325e-08 -1.40301e-09 0 10.6257 6.65407e-08 0 0 0 0)
(-8.66324e-09 -8.99294e-09 0 10.6257 9.56419e-09 0 0 0 0)
(8.91421e-08 -6.5003e-09 0 10.6257 -9.41078e-08 0 0 0 0)
(1.18347e-07 -3.78659e-10 0 10.6257 -1.14694e-07 0 0 0 0)
(1.03804e-07 5.59798e-09 0 10.6257 -1.06321e-07 0 0 0 0)
(1.1873e-08 1.17014e-08 0 10.6257 -1.30352e-08 0 0 0 0)
(-1.10098e-07 8.61315e-09 0 10.5854 1.18142e-07 0 0 0 0)
(-1.02372e-07 -7.13532e-09 0 10.5854 9.9021e-08 0 0 0 0)
(-3.52561e-08 -4.78775e-09 0 10.5854 3.43592e-08 0 0 0 0)
(-3.68441e-08 3.52993e-09 0 10.5854 3.55792e-08 0 0 0 0)
(-7.36091e-08 -2.09296e-09 0 10.5854 7.61982e-08 0 0 0 0)
(-1.32284e-08 -1.43551e-08 0 10.5854 1.40234e-08 0 0 0 0)
(9.89454e-08 -1.07299e-08 0 10.5854 -1.05654e-07 0 0 0 0)
(1.36937e-07 -8.44966e-10 0 10.5854 -1.32006e-07 0 0 0 0)
(1.20018e-07 8.99742e-09 0 10.5854 -1.23045e-07 0 0 0 0)
(1.5507e-08 1.88054e-08 0 10.5854 -1.66176e-08 0 0 0 0)
(-1.11704e-07 1.29561e-08 0 10.5309 1.2257e-07 0 0 0 0)
(-1.07236e-07 -1.0192e-08 0 10.5309 1.03423e-07 0 0 0 0)
(-3.89071e-08 -7.16173e-09 0 10.5309 3.8468e-08 0 0 0 0)
(-3.92973e-08 5.06684e-09 0 10.5309 3.78133e-08 0 0 0 0)
(-7.91362e-08 -2.83438e-09 0 10.5309 8.23206e-08 0 0 0 0)
(-1.80139e-08 -2.11386e-08 0 10.5309 1.84722e-08 0 0 0 0)
(1.02033e-07 -1.62651e-08 0 10.5309 -1.11748e-07 0 0 0 0)
(1.47062e-07 -1.54733e-09 0 10.5309 -1.41256e-07 0 0 0 0)
(1.27715e-07 1.33051e-08 0 10.5309 -1.31611e-07 0 0 0 0)
(1.74848e-08 2.78111e-08 0 10.5309 -1.84528e-08 0 0 0 0)
(-1.00604e-07 1.79678e-08 0 10.4487 1.12561e-07 0 0 0 0)
(-9.85922e-08 -1.35815e-08 0 10.4487 9.44247e-08 0 0 0 0)
(-3.69799e-08 -9.81813e-09 0 10.4487 3.9222e-08 0 0 0 0)
(-3.91587e-08 6.89979e-09 0 10.4487 3.97419e-08 0 0 0 0)
(-8.071e-08 -3.56951e-09 0 10.4487 8.65038e-08 0 0 0 0)
(-2.26031e-08 -2.92711e-08 0 10.4487 2.44554e-08 0 0 0 0)
(9.69029e-08 -2.30138e-08 0 10.4487 -1.09961e-07 0 0 0 0)
(1.44246e-07 -2.37039e-09 0 10.4487 -1.39145e-07 0 0 0 0)
(1.21392e-07 1.84336e-08 0 10.4487 -1.28326e-07 0 0 0 0)
(1.61083e-08 3.83232e-08 0 10.4487 -1.94772e-08 0 0 0 0)
(-6.92269e-08 2.29854e-08 0 10.3049 7.3791e-08 0 0 0 0)
(-6.94778e-08 -1.66247e-08 0 10.3049 6.06113e-08 0 0 0 0)
(-2.49438e-08 -1.19383e-08 0 10.3049 3.03257e-08 0 0 0 0)
(-3.50389e-08 9.26793e-09 0 10.3049 4.25625e-08 0 0 0 0)
(-7.93993e-08 -4.17081e-09 0 10.3049 9.22333e-08 0 0 0 0)
(-2.83508e-08 -3.85159e-08 0 10.3049 3.6922e-08 0 0 0 0)
(8.05285e-08 -3.07391e-08 0 10.3049 -8.88512e-08 0 0 0 0)
(1.21428e-07 -3.16206e-09 0 10.3049 -1.15059e-07 0 0 0 0)
(9.30416e-08 2.38629e-08 0 10.3049 -1.07499e-07 0 0 0 0)
(1.14394e-08 4.90348e-08 0 10.3049 -2.50368e-08 0 0 0 0)
(-5.7687e-09 2.656e-08 0 10.0127 -2.25e-09 0 0 0 0)
(-1.38885e-08 -1.78659e-08 0 10.0127 -1.25316e-08 0 0 0 0)
(3.67502e-09 -1.14662e-08 0 10.0127 -1.21798e-08 0 0 0 0)
(-2.14486e-08 1.33029e-08 0 10.0127 2.81445e-08 0 0 0 0)
(-7.4028e-08 -4.09394e-09 0 10.0127 8.74405e-08 0 0 0 0)
(-3.72613e-08 -4.76461e-08 0 10.0127 5.39924e-08 0 0 0 0)
(4.40717e-08 -3.84408e-08 0 10.0127 -2.744e-08 0 0 0 0)
(6.77634e-08 -4.28714e-09 0 10.0127 -3.02917e-08 0 0 0 0)
(3.205e-08 2.74409e-08 0 10.0127 -4.55707e-08 0 0 0 0)
(4.83509e-09 5.64963e-08 0 10.0127 -3.93137e-08 0 0 0 0)
(8.36011e-08 2.58131e-08 0 9.40839 -4.35748e-08 0 0 0 0)
(6.62365e-08 -1.7686e-08 0 9.40839 -6.59708e-08 0 0 0 0)
(5.58763e-08 -6.88537e-09 0 9.40839 -1.2428e-07 0 0 0 0)
(2.09193e-08 2.12028e-08 0 9.40839 -7.55714e-08 0 0 0 0)
(-3.15145e-08 -9.25728e-10 0 9.40839 5.28426e-08 0 0 0 0)
(-4.54611e-08 -5.15941e-08 0 9.40839 1.96534e-08 0 0 0 0)
(-3.43681e-08 -4.01808e-08 0 9.40839 1.33562e-08 0 0 0 0)
(-4.45432e-08 -5.27441e-09 0 9.40839 1.27118e-07 0 0 0 0)
(-7.35948e-08 2.21788e-08 0 9.40839 1.01655e-07 0 0 0 0)
(2.84848e-09 5.33517e-08 0 9.40839 -5.22914e-09 0 0 0 0)
(6.34815e-08 1.785e-08 0 8.36612 -2.47196e-10 0 0 0 0)
(6.43065e-08 -2.96178e-08 0 8.36612 -5.95449e-08 0 0 0 0)
(1.86127e-07 -1.35617e-08 0 8.36612 -1.1744e-07 0 0 0 0)
(1.53121e-07 3.78259e-08 0 8.36612 -1.92177e-07 0 0 0 0)
(4.10828e-08 9.25522e-09 0 8.36612 -8.49304e-08 0 0 0 0)
(4.73402e-08 -5.27786e-08 0 8.36612 -2.17349e-08 0 0 0 0)
(-7.141e-08 -2.25626e-08 0 8.36612 -3.69691e-08 0 0 0 0)
(-2.24615e-07 8.6916e-09 0 8.36612 1.2379e-07 0 0 0 0)
(-2.19281e-07 9.01913e-09 0 8.36612 2.39587e-07 0 0 0 0)
(-4.01529e-08 3.58789e-08 0 8.36612 1.49667e-07 0 0 0 0)
(-3.85645e-08 -8.01161e-09 0 7.00426 5.38886e-08 0 0 0 0)
(-4.06933e-09 -3.54904e-08 0 7.00426 -5.05169e-09 0 0 0 0)
(9.01414e-08 -2.80798e-08 0 7.00425 -2.14752e-08 0 0 0 0)
(2.23623e-07 2.41052e-08 0 7.00425 -1.42985e-07 0 0 0 0)
(1.76318e-07 2.60657e-08 0 7.00425 -2.11109e-07 0 0 0 0)
(1.03835e-07 -4.33794e-08 0 7.00425 -6.66387e-08 0 0 0 0)
(6.07795e-08 -1.85007e-08 0 7.00425 3.91692e-08 0 0 0 0)
(-1.01217e-07 3.8912e-08 0 7.00425 8.3459e-08 0 0 0 0)
(-2.88674e-07 2.85263e-08 0 7.00426 1.39527e-07 0 0 0 0)
(-2.22172e-07 1.58527e-08 0 7.00426 1.31217e-07 0 0 0 0)
(-1.26886e-08 -4.51037e-09 0 5.62103 -1.46426e-09 0 0 0 0)
(-1.83236e-08 -4.3274e-08 0 5.62103 -3.80357e-08 0 0 0 0)
(-1.02376e-07 -3.7979e-08 0 5.62103 4.0728e-08 0 0 0 0)
(3.1222e-08 3.30214e-09 0 5.62103 3.7092e-08 0 0 0 0)
(2.4359e-07 2.14279e-08 0 5.62103 -1.13066e-07 0 0 0 0)
(1.55718e-08 -5.88187e-09 0 5.62103 -1.24599e-07 0 0 0 0)
(-1.03991e-07 5.80334e-09 0 5.62103 6.86251e-08 0 0 0 0)
(4.12243e-08 2.34499e-08 0 5.62103 9.65341e-08 0 0 0 0)
(-2.45344e-08 1.52581e-08 0 5.62103 5.17681e-09 0 0 0 0)
(-6.96946e-08 2.24038e-08 0 5.62103 2.90084e-08 0 0 0 0)
(1.28196e-07 -2.34757e-08 0 4.42852 -5.57375e-08 0 0 0 0)
(8.90605e-08 -2.49049e-08 0 4.42852 -4.98329e-08 0 0 0 0)
(-1.24779e-07 -9.83696e-09 0 4.42852 4.50925e-08 0 0 0 0)
(-1.97845e-07 -6.95717e-09 0 4.42852 1.20535e-07 0 0 0 0)
(4.27915e-08 -9.22801e-09 0 4.42852 3.28966e-08 0 0 0 0)
(2.41398e-08 -8.65921e-09 0 4.42852 -4.48187e-08 0 0 0 0)
(-1.92641e-07 2.70203e-08 0 4.42852 -1.13393e-10 0 0 0 0)
(2.97838e-09 2.71496e-08 0 4.42852 3.39056e-08 0 0 0 0)
(1.46432e-07 1.55203e-08 0 4.42852 -2.21382e-08 0 0 0 0)
(8.16663e-08 1.33717e-08 0 4.42852 -5.97887e-08 0 0 0 0)
(6.18701e-08 9.46882e-10 0 3.48019 -2.70764e-08 0 0 0 0)
(3.20163e-09 -2.01979e-08 0 3.48019 -9.8433e-09 0 0 0 0)
(-2.78933e-08 1.45446e-09 0 3.48019 1.14168e-08 0 0 0 0)
(-1.56724e-07 1.74054e-09 0 3.48019 5.78133e-08 0 0 0 0)
(-9.69517e-08 -1.63337e-08 0 3.48019 8.74893e-08 0 0 0 0)
(3.6006e-08 -1.39317e-08 0 3.48019 5.30763e-08 0 0 0 0)
(2.58807e-08 2.27685e-08 0 3.48019 -7.79889e-09 0 0 0 0)
(5.4486e-08 1.72294e-08 0 3.48019 -3.48516e-08 0 0 0 0)
(3.70942e-08 -8.83621e-09 0 3.48019 -6.40309e-08 0 0 0 0)
(6.30308e-08 1.51596e-08 0 3.48019 -6.61948e-08 0 0 0 0)
(-7.01365e-08 -1.05316e-08 0 2.75142 2.83069e-09 0 0 0 0)
(-8.23471e-08 -1.42308e-08 0 2.75142 3.20027e-08 0 0 0 0)
(7.89584e-08 8.46235e-09 0 2.75142 4.99247e-08 0 0 0 0)
(3.76778e-08 1.42301e-08 0 2.75142 1.24052e-08 0 0 0 0)
(-9.79677e-08 -9.54315e-09 0 2.75142 3.50926e-08 0 0 0 0)
(-1.89468e-08 -3.60584e-08 0 2.75142 4.35892e-08 0 0 0 0)
(1.15108e-07 1.64371e-09 0 2.75142 -1.64552e-08 0 0 0 0)
(5.38364e-08 1.20222e-08 0 2.75142 -8.77744e-08 0 0 0 0)
(-2.59617e-08 9.96864e-09 0 2.75142 -7.13928e-08 0 0 0 0)
(9.77974e-09 2.40369e-08 0 2.75142 -2.22717e-10 0 0 0 0)
(-3.70373e-08 1.3701e-08 0 2.19781 1.2733e-08 0 0 0 0)
(-1.2896e-08 -5.03817e-09 0 2.19781 4.31763e-08 0 0 0 0)
(2.35219e-08 -6.30595e-09 0 2.19781 -8.29226e-10 0 0 0 0)
(3.91479e-08 -5.23212e-09 0 2.19781 -2.50781e-08 0 0 0 0)
(-4.80422e-08 -6.72977e-09 0 2.19781 6.02244e-09 0 0 0 0)
(-3.28067e-08 -2.81394e-08 0 2.19781 2.38986e-08 0 0 0 0)
(9.98602e-10 -1.88325e-08 0 2.19781 -1.88844e-08 0 0 0 0)
(2.47241e-08 -7.23462e-10 0 2.19781 -7.00093e-09 0 0 0 0)
(6.0559e-08 1.81673e-08 0 2.19781 9.58267e-10 0 0 0 0)
(-1.81694e-08 3.91331e-08 0 2.19781 -3.49958e-08 0 0 0 0)
(2.83377e-08 1.65219e-08 0 1.7769 -4.77582e-09 0 0 0 0)
(3.10329e-08 -2.09738e-08 0 1.7769 -1.56767e-08 0 0 0 0)
(-3.58897e-10 -1.61363e-08 0 1.7769 -1.98856e-08 0 0 0 0)
(-5.48504e-09 1.99035e-08 0 1.7769 -2.7038e-09 0 0 0 0)
(-4.65958e-08 9.29865e-09 0 1.7769 1.04322e-09 0 0 0 0)
(9.78572e-09 -4.70706e-08 0 1.7769 1.91189e-08 0 0 0 0)
(-2.24284e-08 -7.38271e-09 0 1.7769 -1.25674e-08 0 0 0 0)
(-5.84057e-08 2.17801e-08 0 1.7769 1.65863e-09 0 0 0 0)
(4.10453e-08 -2.30148e-09 0 1.7769 3.61855e-08 0 0 0 0)
(2.30722e-08 2.63608e-08 0 1.7769 -2.39698e-09 0 0 0 0)
(6.77749e-09 7.24447e-09 0 1.45425 -3.42501e-08 0 0 0 0)
(2.16529e-08 -9.45555e-09 0 1.45425 -2.61518e-08 0 0 0 0)
(-3.12634e-09 1.08363e-09 0 1.45425 6.73948e-10 0 0 0 0)
(-1.40789e-08 4.17918e-10 0 1.45425 1.30357e-08 0 0 0 0)
(1.56747e-08 7.19031e-10 0 1.45425 4.9351e-09 0 0 0 0)
(1.19788e-08 -3.14183e-08 0 1.45425 1.07502e-08 0 0 0 0)
(3.00939e-08 -2.85057e-08 0 1.45425 3.69346e-08 0 0 0 0)
(-2.12387e-08 1.79528e-08 0 1.45425 -2.88337e-10 0 0 0 0)
(-4.94197e-08 1.94586e-08 0 1.45425 -8.29354e-09 0 0 0 0)
(1.68585e-09 2.25031e-08 0 1.45425 2.65418e-09 0 0 0 0)
(2.31331e-08 2.87274e-09 0 1.20379 -1.43041e-08 0 0 0 0)
(1.66453e-08 -4.46708e-09 0 1.20379 -2.31556e-08 0 0 0 0)
(-3.9763e-09 1.72834e-09 0 1.20379 -1.68669e-08 0 0 0 0)
(2.20765e-08 2.51134e-08 0 1.20379 1.72954e-08 0 0 0 0)
(1.81845e-08 9.4156e-09 0 1.20379 3.22799e-09 0 0 0 0)
(-6.40264e-08 -3.27262e-08 0 1.20379 -3.02353e-08 0 0 0 0)
(-2.32499e-08 -9.92559e-09 0 1.20379 2.80361e-08 0 0 0 0)
(9.39882e-09 -1.29325e-09 0 1.20379 2.9813e-08 0 0 0 0)
(-1.40914e-08 -4.09108e-09 0 1.20379 -9.30728e-11 0 0 0 0)
(1.59057e-08 1.33731e-08 0 1.20379 6.28244e-09 0 0 0 0)
(-9.71006e-10 -9.84144e-09 0 1.00644 -1.48974e-08 0 0 0 0)
(2.18322e-08 -1.17644e-08 0 1.00644 -4.32708e-09 0 0 0 0)
(1.40701e-08 2.53819e-08 0 1.00644 -4.35329e-09 0 0 0 0)
(5.95467e-09 8.75973e-09 0 1.00644 8.59747e-10 0 0 0 0)
(-9.21916e-09 -2.92782e-08 0 1.00644 -2.11553e-08 0 0 0 0)
(-2.49432e-08 -1.62559e-08 0 1.00644 -1.28184e-08 0 0 0 0)
(-1.27641e-08 4.86838e-09 0 1.00644 2.61313e-08 0 0 0 0)
(1.30879e-09 3.93177e-09 0 1.00644 2.31724e-08 0 0 0 0)
(8.88426e-09 8.86938e-09 0 1.00644 1.42747e-08 0 0 0 0)
(-4.15243e-09 1.53288e-08 0 1.00644 -6.88666e-09 0 0 0 0)
(-8.66746e-09 6.59763e-09 0 0.848412 -2.81626e-09 0 0 0 0)
(-9.93871e-09 3.98149e-09 0 0.848412 5.65637e-09 0 0 0 0)
(3.44321e-09 1.71671e-09 0 0.848412 1.34141e-08 0 0 0 0)
(-1.1156e-08 1.59312e-08 0 0.848412 -5.06782e-09 0 0 0 0)
(4.07305e-09 5.82333e-09 0 0.848412 4.67677e-09 0 0 0 0)
(3.17525e-08 -2.36326e-09 0 0.848412 1.02851e-08 0 0 0 0)
(5.30278e-09 1.28388e-08 0 0.848412 -8.60374e-09 0 0 0 0)
(-1.29334e-08 -1.03375e-08 0 0.848412 -1.37163e-08 0 0 0 0)
(-4.15158e-09 -2.69764e-08 0 0.848412 -6.67089e-09 0 0 0 0)
(2.27567e-09 -7.21191e-09 0 0.848412 2.84273e-09 0 0 0 0)
(-7.28357e-09 -1.01004e-08 0 0.719697 6.41029e-09 0 0 0 0)
(-2.05889e-08 -1.16018e-09 0 0.719697 -2.75193e-09 0 0 0 0)
(-1.39797e-08 2.04038e-08 0 0.719697 8.09228e-09 0 0 0 0)
(6.16105e-10 6.57322e-10 0 0.719697 1.6625e-08 0 0 0 0)
(6.81863e-10 -2.23385e-08 0 0.719697 -1.07702e-09 0 0 0 0)
(2.22751e-08 -2.90291e-08 0 0.719697 8.59422e-10 0 0 0 0)
(1.92117e-08 -1.55944e-08 0 0.719697 -7.51803e-09 0 0 0 0)
(-4.4999e-09 7.66437e-09 0 0.719697 -2.41619e-08 0 0 0 0)
(1.36969e-09 2.76295e-08 0 0.719697 -5.90758e-09 0 0 0 0)
(2.19756e-09 2.18676e-08 0 0.719697 9.42937e-09 0 0 0 0)
(2.45382e-09 -2.10856e-09 0 0.612919 -5.56952e-09 0 0 0 0)
(9.33333e-09 6.32292e-09 0 0.61292 4.10073e-09 0 0 0 0)
(-1.05163e-09 1.67704e-08 0 0.61292 -4.92442e-09 0 0 0 0)
(-4.57384e-09 9.79153e-09 0 0.61292 -1.26508e-08 0 0 0 0)
(-8.55719e-10 -4.44249e-09 0 0.61292 -7.97735e-09 0 0 0 0)
(1.31265e-10 -4.23815e-09 0 0.61292 5.06498e-09 0 0 0 0)
(9.20988e-10 -5.94179e-09 0 0.61292 1.61617e-08 0 0 0 0)
(-2.97359e-09 -1.16027e-08 0 0.612919 9.70748e-09 0 0 0 0)
(-1.46747e-09 -4.27754e-09 0 0.612919 2.30958e-09 0 0 0 0)
(-1.91716e-09 -2.73585e-10 0 0.612919 -6.22238e-09 0 0 0 0)
(9.15261e-09 -3.20222e-10 0 0.522433 7.04081e-09 0 0 0 0)
(1.09359e-08 -1.61736e-09 0 0.522433 4.40741e-09 0 0 0 0)
(9.10669e-09 3.10529e-09 0 0.522433 -2.17469e-09 0 0 0 0)
(5.84199e-09 -3.99394e-09 0 0.522433 -9.54993e-09 0 0 0 0)
(4.29077e-09 -6.19413e-09 0 0.522433 -6.86378e-09 0 0 0 0)
(-7.47106e-09 -7.09326e-09 0 0.522433 -2.84177e-09 0 0 0 0)
(-1.77069e-08 -1.2123e-08 0 0.522433 -2.23497e-09 0 0 0 0)
(-1.23128e-08 -4.15229e-09 0 0.522433 1.95978e-09 0 0 0 0)
(-4.84316e-09 1.5532e-08 0 0.522433 4.23271e-09 0 0 0 0)
(3.00592e-09 1.68569e-08 0 0.522433 6.02462e-09 0 0 0 0)
(-4.17698e-09 -4.3695e-09 0 0.443597 -6.84524e-09 0 0 0 0)
(-1.57439e-09 -3.7872e-09 0 0.443597 -3.41122e-09 0 0 0 0)
(-1.60348e-09 1.70886e-09 0 0.443597 -4.49558e-09 0 0 0 0)
(2.26344e-09 6.13806e-09 0 0.443597 -3.1991e-09 0 0 0 0)
(5.73557e-09 4.06904e-09 0 0.443597 9.67352e-10 0 0 0 0)
(2.83794e-09 1.88689e-09 0 0.443597 1.10724e-09 0 0 0 0)
(1.25155e-09 9.04354e-10 0 0.443597 4.17368e-09 0 0 0 0)
(2.2461e-09 -4.79442e-09 0 0.443597 9.50984e-09 0 0 0 0)
(-1.20667e-09 -2.31275e-09 0 0.443597 6.19973e-09 0 0 0 0)
(-5.77308e-09 5.56658e-10 0 0.443597 -4.00686e-09 0 0 0 0)
(6.83821e-10 1.14318e-09 0 0.372076 -6.96003e-10 0 0 0 0)
(5.70341e-10 2.04376e-09 0 0.372076 2.32473e-09 0 0 0 0)
(-7.8158e-10 3.61946e-09 0 0.372076 4.07551e-09 0 0 0 0)
(-1.38876e-09 2.1964e-09 0 0.372076 3.07449e-09 0 0 0 0)
(-1.25033e-09 -1.66261e-09 0 0.372076 1.66329e-10 0 0 0 0)
(8.99105e-10 -3.92405e-09 0 0.372076 -1.11549e-09 0 0 0 0)
(1.11549e-09 -2.21038e-09 0 0.372076 -2.99136e-09 0 0 0 0)
(3.9205e-10 -1.18339e-09 0 0.372076 -2.44907e-09 0 0 0 0)
(2.32586e-10 -8.89654e-10 0 0.372076 -5.54486e-10 0 0 0 0)
(-4.72737e-10 8.67289e-10 0 0.372076 -1.83466e-09 0 0 0 0)
(-1.43462e-10 1.58209e-09 0 0.303026 5.55156e-10 0 0 0 0)
(-7.31949e-10 3.11568e-09 0 0.303026 3.10547e-10 0 0 0 0)
(-1.55294e-09 2.6414e-09 0 0.303026 -2.90462e-10 0 0 0 0)
(-1.45113e-09 3.54894e-10 0 0.303026 -1.27689e-09 0 0 0 0)
(1.65473e-10 -1.89902e-09 0 0.303026 -1.52045e-09 0 0 0 0)
(1.39737e-09 -2.38265e-09 0 0.303026 -1.41881e-09 0 0 0 0)
(2.05371e-09 -7.9774e-10 0 0.303026 1.82801e-11 0 0 0 0)
(8.44015e-10 -1.36588e-09 0 0.303026 1.05717e-09 0 0 0 0)
(-5.22783e-10 -1.52672e-09 0 0.303026 1.23755e-09 0 0 0 0)
(-5.82996e-11 2.77952e-10 0 0.303026 1.32807e-09 0 0 0 0)
(1.44219e-10 -8.40513e-10 0 0.230378 2.29681e-10 0 0 0 0)
(9.37578e-10 2.8702e-10 0 0.230378 7.64924e-10 0 0 0 0)
(8.85255e-10 7.79082e-10 0 0.230378 1.24334e-09 0 0 0 0)
(8.99955e-11 1.61365e-10 0 0.230378 1.12436e-09 0 0 0 0)
(-5.74589e-10 -1.89376e-09 0 0.230378 3.90462e-12 0 0 0 0)
(-1.18365e-09 -1.26158e-09 0 0.230378 -2.03583e-09 0 0 0 0)
(-6.51398e-11 2.23714e-09 0 0.230378 -1.72276e-09 0 0 0 0)
(5.20403e-10 1.14107e-09 0 0.230378 -2.33131e-10 0 0 0 0)
(-3.89747e-10 -2.81947e-10 0 0.230378 2.45779e-10 0 0 0 0)
(-3.64327e-10 -3.27874e-10 0 0.230378 3.79603e-10 0 0 0 0)
(-8.62736e-10 2.78949e-09 0 0.147759 -3.93503e-10 0 0 0 0)
(-9.65993e-10 5.74975e-09 0 0.147759 -5.6288e-10 0 0 0 0)
(-7.05848e-10 3.70687e-09 0 0.147759 -8.71907e-10 0 0 0 0)
(1.13572e-09 -2.30716e-09 0 0.147759 -1.80601e-10 0 0 0 0)
(1.64455e-09 -8.76275e-09 0 0.147759 4.15722e-10 0 0 0 0)
(1.94504e-09 -6.30392e-09 0 0.147759 1.37254e-09 0 0 0 0)
(2.00442e-10 2.65288e-09 0 0.147759 8.64285e-10 0 0 0 0)
(-1.23274e-09 2.52565e-09 0 0.147759 -1.8902e-10 0 0 0 0)
(-2.76411e-10 -3.86483e-10 0 0.147759 -1.46159e-11 0 0 0 0)
(-8.82024e-10 3.35671e-10 0 0.147759 -4.40056e-10 0 0 0 0)
(1.02299e-10 -1.70337e-09 0 0.0516077 7.7661e-10 0 0 0 0)
(2.96812e-10 -1.74654e-09 0 0.0516077 1.65008e-10 0 0 0 0)
(8.80414e-10 1.28838e-09 0 0.0516077 -9.14726e-10 0 0 0 0)
(7.29716e-10 3.7631e-09 0 0.0516077 -1.7617e-09 0 0 0 0)
(2.43218e-10 3.04597e-09 0 0.0516077 -1.29679e-09 0 0 0 0)
(-5.29544e-10 6.32945e-10 0 0.0516077 6.82845e-10 0 0 0 0)
(-1.22435e-09 -1.73646e-09 0 0.0516077 1.0016e-09 0 0 0 0)
(-7.94819e-10 -1.27142e-09 0 0.0516077 2.24836e-10 0 0 0 0)
(-1.58555e-12 -8.94526e-10 0 0.0516077 4.33321e-10 0 0 0 0)
(2.97839e-10 -1.37808e-09 0 0.0516077 6.8904e-10 0 0 0 0)
)
;

boundaryField
{
    INLET
    {
        type            cyclic;
    }
    OUTLET
    {
        type            cyclic;
    }
    WALL
    {
        type            extrapolatedCalculated;
        value           nonuniform List<tensor> 10((-1.33845e-08 2.68495e-11 0 10.7333 5.96872e-09 0 0 0 0) (-1.03897e-08 -4.34264e-11 0 10.7333 2.94363e-09 0 0 0 0) (-2.5799e-09 -1.39654e-11 0 10.7333 6.24989e-10 0 0 0 0) (-4.03063e-09 2.13206e-11 0 10.7333 1.22515e-09 0 0 0 0) (-8.01451e-09 -9.29191e-12 0 10.7333 3.24855e-09 0 0 0 0) (4.315e-12 -6.90655e-11 0 10.7333 8.17591e-11 0 0 0 0) (1.19013e-08 -3.2279e-11 0 10.7333 -5.25014e-09 0 0 0 0) (1.38885e-08 5.349e-12 0 10.7333 -3.89025e-09 0 0 0 0) (1.20776e-08 2.86868e-11 0 10.7333 -4.59193e-09 0 0 0 0) (5.27591e-10 8.58223e-11 0 10.7333 -3.60276e-10 0 0 0 0));
    }
    CENTER
    {
        type            symmetryPlane;
    }
    frontAndBackPlanes
    {
        type            empty;
    }
}


// ************************************************************************* //
