/*--------------------------------*- C++ -*----------------------------------*\
| =========                 |                                                 |
| \\      /  F ield         | OpenFOAM: The Open Source CFD Toolbox           |
|  \\    /   O peration     | Version:  v1806                                 |
|   \\  /    A nd           | Web:      www.OpenFOAM.com                      |
|    \\/     M anipulation  |                                                 |
\*---------------------------------------------------------------------------*/
FoamFile
{
    version     2.0;
    format      ascii;
    class       volVectorField;
    location    "10000";
    object      grad(p);
}
// * * * * * * * * * * * * * * * * * * * * * * * * * * * * * * * * * * * * * //

dimensions      [0 1 -2 0 0 0 0];


internalField   nonuniform List<vector> 
320
(
(-1.71621e-08 2.38224e-09 0)
(8.64175e-09 1.77412e-09 0)
(7.97774e-09 5.06174e-10 0)
(7.88082e-09 6.69003e-10 0)
(2.04103e-08 1.42858e-09 0)
(3.29786e-08 1.0133e-10 0)
(1.22086e-08 -2.11813e-09 0)
(-9.61884e-09 -2.34332e-09 0)
(-2.34346e-08 -2.19889e-09 0)
(-3.98823e-08 -2.01132e-10 0)
(-1.7093e-08 4.6589e-09 0)
(8.5761e-09 3.64945e-09 0)
(7.93907e-09 1.09588e-09 0)
(7.9131e-09 1.34496e-09 0)
(2.03905e-08 2.84348e-09 0)
(3.28545e-08 2.75732e-10 0)
(1.21231e-08 -4.14713e-09 0)
(-9.62167e-09 -4.79677e-09 0)
(-2.33596e-08 -4.45116e-09 0)
(-3.9722e-08 -4.73369e-10 0)
(-1.70063e-08 3.90952e-09 0)
(8.50804e-09 3.47576e-09 0)
(7.89068e-09 1.19633e-09 0)
(7.94639e-09 1.17992e-09 0)
(2.03702e-08 2.51456e-09 0)
(3.27155e-08 4.97962e-10 0)
(1.20171e-08 -3.48174e-09 0)
(-9.63067e-09 -4.46787e-09 0)
(-2.32716e-08 -4.13868e-09 0)
(-3.95393e-08 -6.85771e-10 0)
(-1.69126e-08 2.52387e-09 0)
(8.4603e-09 2.97173e-09 0)
(7.83967e-09 1.27367e-09 0)
(7.96933e-09 7.91613e-10 0)
(2.03618e-08 1.85901e-09 0)
(3.25968e-08 9.02137e-10 0)
(1.19083e-08 -2.2237e-09 0)
(-9.65085e-09 -3.56097e-09 0)
(-2.31972e-08 -3.43286e-09 0)
(-3.93756e-08 -1.10451e-09 0)
(-1.6802e-08 8.68208e-10 0)
(8.44829e-09 2.62981e-09 0)
(7.78155e-09 1.48628e-09 0)
(7.97428e-09 3.00368e-10 0)
(2.03774e-08 1.12831e-09 0)
(3.25147e-08 1.57075e-09 0)
(1.17943e-08 -6.87693e-10 0)
(-9.69244e-09 -2.61816e-09 0)
(-2.31513e-08 -2.7951e-09 0)
(-3.92448e-08 -1.88277e-09 0)
(-1.66505e-08 -1.29739e-09 0)
(8.50036e-09 2.57423e-09 0)
(7.70451e-09 1.97573e-09 0)
(7.94643e-09 -2.97391e-10 0)
(2.0438e-08 2.75734e-10 0)
(3.2497e-08 2.65909e-09 0)
(1.16667e-08 1.30057e-09 0)
(-9.7748e-09 -1.67062e-09 0)
(-2.31587e-08 -2.25464e-09 0)
(-3.9169e-08 -3.26531e-09 0)
(-1.64089e-08 -4.43518e-09 0)
(8.67369e-09 2.87857e-09 0)
(7.58859e-09 2.951e-09 0)
(7.85733e-09 -8.81556e-10 0)
(2.0579e-08 -6.2268e-10 0)
(3.25905e-08 4.51325e-09 0)
(1.15051e-08 4.0514e-09 0)
(-9.93332e-09 -7.92422e-10 0)
(-2.32638e-08 -1.94454e-09 0)
(-3.91882e-08 -5.71784e-09 0)
(-1.59808e-08 -9.30257e-09 0)
(9.08104e-09 3.37505e-09 0)
(7.41314e-09 4.36979e-09 0)
(7.66628e-09 -1.29482e-09 0)
(2.08599e-08 -1.32003e-09 0)
(3.2867e-08 7.80562e-09 0)
(1.12553e-08 8.36727e-09 0)
(-1.02435e-08 1.29195e-10 0)
(-2.35475e-08 -2.11447e-09 0)
(-3.93708e-08 -1.0015e-08 0)
(-1.52052e-08 -1.61804e-08 0)
(9.90728e-09 3.42403e-09 0)
(7.17281e-09 4.9678e-09 0)
(7.34726e-09 -2.27773e-09 0)
(2.13986e-08 -2.09911e-09 0)
(3.34664e-08 1.2938e-08 0)
(1.08158e-08 1.57026e-08 0)
(-1.08794e-08 2.28461e-09 0)
(-2.41819e-08 -2.39089e-09 0)
(-3.98415e-08 -1.63689e-08 0)
(-1.39364e-08 -2.12927e-08 0)
(1.12658e-08 3.22616e-09 0)
(6.8268e-09 1.62876e-09 0)
(6.9428e-09 -7.67179e-09 0)
(2.24404e-08 -5.6198e-09 0)
(3.47207e-08 1.7792e-08 0)
(1.01583e-08 2.52327e-08 0)
(-1.21235e-08 7.85807e-09 0)
(-2.5489e-08 5.10073e-11 0)
(-4.08058e-08 -2.12044e-08 0)
(-1.2321e-08 -1.22215e-08 0)
(1.25876e-08 9.26486e-09 0)
(5.8526e-09 -4.9578e-09 0)
(6.49581e-09 -2.32909e-08 0)
(2.44476e-08 -1.57937e-08 0)
(3.71619e-08 1.56875e-08 0)
(9.66469e-09 2.43525e-08 0)
(-1.38619e-08 9.49216e-09 0)
(-2.76439e-08 8.62053e-09 0)
(-4.23833e-08 -1.11536e-08 0)
(-1.12172e-08 1.34386e-08 0)
(1.21188e-08 2.27087e-08 0)
(2.24628e-09 1.30471e-08 0)
(5.43699e-09 -3.24975e-08 0)
(2.77959e-08 -3.88631e-08 0)
(4.01795e-08 1.26578e-08 0)
(9.33373e-09 3.04636e-09 0)
(-1.4143e-08 -2.64205e-08 0)
(-2.81587e-08 9.33092e-09 0)
(-4.35923e-08 2.35514e-08 0)
(-1.2631e-08 3.40864e-08 0)
(1.25937e-08 3.03661e-08 0)
(-2.84271e-09 5.34957e-08 0)
(-2.03714e-09 1.94967e-09 0)
(3.14989e-08 -5.67973e-08 0)
(4.37201e-08 9.03953e-09 0)
(3.16972e-09 -1.1747e-09 0)
(-1.27663e-08 -7.7184e-08 0)
(-1.91949e-08 -2.96102e-08 0)
(-4.15104e-08 3.58287e-08 0)
(-1.20559e-08 3.97891e-08 0)
(1.57945e-08 1.9847e-08 0)
(-2.46309e-09 5.03221e-08 0)
(-1.47198e-08 6.33392e-08 0)
(2.85986e-08 -1.70132e-08 0)
(5.03799e-08 -2.92587e-08 0)
(-6.37509e-09 -9.30839e-09 0)
(-1.98452e-08 -6.93201e-08 0)
(-7.70454e-09 -6.37896e-08 0)
(-3.16095e-08 1.53927e-08 0)
(-1.17272e-08 5.97449e-08 0)
(1.44494e-08 1.49649e-08 0)
(6.7835e-09 -1.44185e-08 0)
(-1.50903e-08 7.1888e-08 0)
(1.13241e-08 6.18977e-08 0)
(4.44169e-08 -7.44228e-08 0)
(-4.29049e-09 -8.37137e-08 0)
(-2.38145e-08 -2.76561e-08 0)
(-2.08987e-09 -2.35104e-08 0)
(-1.99614e-08 1.52259e-08 0)
(-1.21732e-08 8.49823e-08 0)
(-3.03972e-09 1.78996e-08 0)
(1.07363e-08 -7.13758e-08 0)
(4.92959e-09 1.48789e-08 0)
(-6.32115e-09 9.96698e-08 0)
(1.39093e-08 -5.5478e-08 0)
(5.31243e-09 -1.28493e-07 0)
(-3.78191e-09 -4.79649e-09 0)
(2.44567e-09 1.52167e-08 0)
(-1.20172e-08 2.7496e-08 0)
(-1.44996e-08 5.77958e-08 0)
(-2.91578e-08 1.39786e-09 0)
(5.28467e-09 -3.97621e-08 0)
(3.24774e-08 -1.29493e-08 0)
(-6.80255e-09 7.12493e-08 0)
(-1.84533e-08 -6.99506e-09 0)
(9.24243e-09 -6.58849e-08 0)
(1.56596e-08 -5.34188e-09 0)
(6.77502e-09 -2.33982e-08 0)
(-5.25791e-10 2.38884e-08 0)
(-1.94931e-08 4.99462e-09 0)
(-3.23395e-08 2.99424e-10 0)
(6.67374e-09 2.83633e-08 0)
(3.86021e-08 1.06719e-09 0)
(-4.21539e-09 1.58762e-08 0)
(-2.79421e-08 9.80291e-09 0)
(5.27544e-09 -5.18618e-09 0)
(7.74414e-09 -5.20066e-09 0)
(1.17593e-08 -4.4048e-08 0)
(1.39353e-08 -5.96886e-09 0)
(-1.12691e-08 -4.94703e-09 0)
(-1.94756e-08 2.20828e-08 0)
(5.37428e-09 4.1571e-08 0)
(2.66268e-08 -5.21999e-09 0)
(-3.76086e-09 -2.6989e-08 0)
(-2.52897e-08 2.04415e-08 0)
(3.94544e-09 -1.18575e-08 0)
(1.57847e-09 -1.67741e-08 0)
(5.71025e-09 2.22253e-09 0)
(1.65601e-08 -2.05302e-08 0)
(-1.41788e-09 4.32996e-09 0)
(-1.32024e-08 2.5566e-08 0)
(-5.51458e-09 2.21961e-08 0)
(9.32884e-09 -2.26441e-08 0)
(7.35754e-09 -3.06165e-08 0)
(-2.14828e-08 4.43966e-08 0)
(-1.14056e-08 -7.73876e-09 0)
(1.50754e-08 -4.17816e-08 0)
(1.09805e-08 1.18293e-08 0)
(1.0281e-08 -5.53691e-09 0)
(3.49375e-09 1.30816e-08 0)
(-1.10895e-08 1.1806e-08 0)
(-1.81786e-08 8.33498e-10 0)
(1.64677e-09 -1.20941e-08 0)
(2.96072e-08 -1.11239e-08 0)
(-1.39047e-08 8.97832e-09 0)
(-3.87859e-08 5.24248e-09 0)
(9.74975e-09 -2.04663e-08 0)
(2.38636e-08 -8.0336e-09 0)
(1.35978e-08 1.17761e-08 0)
(-2.15122e-09 1.54867e-08 0)
(-2.09127e-08 1.05145e-08 0)
(-1.79919e-08 -2.19195e-09 0)
(3.29224e-09 7.14794e-09 0)
(1.66631e-08 -2.3507e-08 0)
(-1.27711e-08 -6.37695e-08 0)
(-2.49757e-08 -3.57945e-09 0)
(7.88299e-09 3.08691e-08 0)
(2.84558e-08 1.37917e-08 0)
(2.25086e-08 1.5238e-08 0)
(1.0727e-09 -2.80871e-09 0)
(-2.18803e-08 1.13747e-08 0)
(-2.05482e-08 1.17112e-08 0)
(-1.34271e-08 4.61466e-09 0)
(-1.77277e-08 -2.71835e-08 0)
(-2.20816e-10 -5.63129e-08 0)
(2.49119e-08 -7.6951e-09 0)
(2.2115e-08 3.85596e-08 0)
(1.22914e-08 2.59761e-08 0)
(1.34133e-08 1.76398e-09 0)
(5.06111e-09 -2.06542e-08 0)
(-9.12309e-09 -1.5236e-08 0)
(-2.30208e-08 7.65491e-09 0)
(-2.53345e-08 1.15958e-08 0)
(-2.69256e-08 7.46273e-09 0)
(9.34089e-10 4.68217e-09 0)
(4.34581e-08 1.12765e-09 0)
(3.27022e-08 4.83404e-09 0)
(1.42714e-09 4.40894e-09 0)
(8.21316e-10 -5.87594e-09 0)
(-8.1901e-09 -2.57371e-08 0)
(2.3376e-09 -2.84214e-08 0)
(4.63385e-09 -8.17608e-09 0)
(-1.17832e-08 1.1976e-08 0)
(-2.27117e-08 2.2524e-08 0)
(-6.25376e-09 3.58829e-08 0)
(2.22151e-08 2.28517e-08 0)
(2.35286e-08 -5.45299e-09 0)
(4.05285e-09 -1.14626e-08 0)
(-7.82926e-09 -1.39845e-08 0)
(-8.29913e-09 -2.90627e-09 0)
(7.84081e-09 -2.28293e-09 0)
(1.58056e-08 -4.36427e-09 0)
(5.31364e-09 -1.98541e-09 0)
(-2.08939e-09 7.69781e-09 0)
(2.38299e-09 1.88121e-08 0)
(2.65065e-09 1.23423e-08 0)
(-2.46784e-09 -7.66093e-09 0)
(-8.06769e-09 -1.27696e-08 0)
(-1.30696e-08 -6.88278e-09 0)
(-2.52073e-09 9.21475e-09 0)
(-2.95987e-10 8.64273e-09 0)
(3.29044e-09 1.65036e-09 0)
(4.24232e-10 -2.77977e-09 0)
(-3.08713e-10 -4.29756e-10 0)
(-1.86748e-09 -8.48636e-10 0)
(-7.32429e-09 -5.30218e-09 0)
(-3.35403e-09 -7.66579e-09 0)
(6.86329e-09 -5.13317e-09 0)
(5.09326e-09 2.65147e-09 0)
(-6.94205e-10 -1.65509e-09 0)
(-1.63226e-09 6.68966e-10 0)
(1.5358e-09 4.79974e-10 0)
(3.11435e-09 1.01151e-09 0)
(3.74382e-10 1.93423e-09 0)
(-3.87041e-09 3.16231e-11 0)
(-5.48248e-09 -8.12593e-10 0)
(-2.09281e-09 1.03477e-09 0)
(4.2665e-09 5.34787e-11 0)
(4.48113e-09 -2.74687e-09 0)
(2.78007e-09 -1.41139e-09 0)
(3.39634e-09 -7.50673e-10 0)
(4.11845e-09 -5.69981e-10 0)
(2.38842e-09 -8.03135e-10 0)
(-2.01399e-09 -6.47216e-10 0)
(-6.04836e-09 5.31759e-10 0)
(-5.96727e-09 1.32789e-09 0)
(-2.13213e-09 1.88951e-09 0)
(1.08274e-09 1.30068e-09 0)
(2.39574e-09 -8.67468e-10 0)
(-1.00571e-09 2.2438e-09 0)
(-8.16709e-10 1.21003e-09 0)
(1.0419e-09 -7.32085e-10 0)
(3.07993e-09 -3.3517e-09 0)
(3.25408e-09 -4.53167e-09 0)
(1.82978e-10 -3.30898e-09 0)
(-2.85093e-09 -5.12603e-11 0)
(-2.13804e-09 2.52591e-09 0)
(-4.39344e-10 3.07122e-09 0)
(-3.08152e-10 2.92473e-09 0)
(-3.64568e-10 4.16345e-10 0)
(-2.42183e-09 1.1825e-09 0)
(-5.31755e-09 1.51165e-09 0)
(-5.96886e-09 7.73343e-10 0)
(-2.72711e-09 -8.4102e-10 0)
(2.72841e-09 -2.07114e-09 0)
(6.22754e-09 -1.27989e-09 0)
(4.64981e-09 2.14469e-11 0)
(2.18169e-09 1.92917e-10 0)
(1.01249e-09 9.38488e-11 0)
(1.6221e-09 -1.58101e-09 0)
(2.17139e-09 -8.99143e-10 0)
(9.90258e-10 2.5341e-10 0)
(-1.42668e-09 1.62004e-09 0)
(-2.95324e-09 2.06745e-09 0)
(-1.30532e-09 1.52973e-09 0)
(9.99901e-10 4.56477e-10 0)
(5.11344e-10 -5.58061e-10 0)
(-6.59019e-10 -1.19632e-09 0)
(4.92609e-11 -1.69257e-09 0)
)
;

boundaryField
{
    INLET
    {
        type            cyclic;
    }
    OUTLET
    {
        type            cyclic;
    }
    WALL
    {
        type            extrapolatedCalculated;
        value           nonuniform List<vector> 10((-1.71621e-08 0 0) (8.64175e-09 0 0) (7.97774e-09 0 0) (7.88082e-09 0 0) (2.04103e-08 0 0) (3.29786e-08 0 0) (1.22086e-08 0 0) (-9.61884e-09 0 0) (-2.34346e-08 0 0) (-3.98823e-08 0 0));
    }
    CENTER
    {
        type            symmetryPlane;
    }
    frontAndBackPlanes
    {
        type            empty;
    }
}


// ************************************************************************* //
