/*--------------------------------*- C++ -*----------------------------------*\
| =========                 |                                                 |
| \\      /  F ield         | OpenFOAM: The Open Source CFD Toolbox           |
|  \\    /   O peration     | Version:  v1806                                 |
|   \\  /    A nd           | Web:      www.OpenFOAM.com                      |
|    \\/     M anipulation  |                                                 |
\*---------------------------------------------------------------------------*/
FoamFile
{
    version     2.0;
    format      ascii;
    class       volVectorField;
    location    "10000";
    object      grad(k);
}
// * * * * * * * * * * * * * * * * * * * * * * * * * * * * * * * * * * * * * //

dimensions      [0 1 -2 0 0 0 0];


internalField   nonuniform List<vector> 
320
(
(-5.088e-12 0.0017882 0)
(8.74667e-12 0.0017882 0)
(7.51021e-12 0.0017882 0)
(2.05357e-12 0.0017882 0)
(-1.63462e-12 0.0017882 0)
(-5.46261e-13 0.0017882 0)
(8.161e-13 0.0017882 0)
(-2.2325e-13 0.0017882 0)
(-1.60369e-12 0.0017882 0)
(-1.00307e-11 0.0017882 0)
(-7.65065e-11 0.00532588 0)
(1.25197e-10 0.00532589 0)
(1.10655e-10 0.00532589 0)
(3.29402e-11 0.0053259 0)
(-2.12508e-11 0.0053259 0)
(-6.42307e-12 0.0053259 0)
(1.16743e-11 0.0053259 0)
(-3.26539e-12 0.0053259 0)
(-2.45715e-11 0.0053259 0)
(-1.48448e-10 0.00532589 0)
(-2.79293e-10 0.0105625 0)
(4.20004e-10 0.0105625 0)
(3.86929e-10 0.0105625 0)
(1.25887e-10 0.0105625 0)
(-6.19772e-11 0.0105625 0)
(-1.59521e-11 0.0105625 0)
(3.88477e-11 0.0105625 0)
(-1.03901e-11 0.0105625 0)
(-8.45065e-11 0.0105625 0)
(-5.19548e-10 0.0105625 0)
(-7.15191e-10 0.0177383 0)
(9.3516e-10 0.0177383 0)
(9.26593e-10 0.0177384 0)
(3.39649e-10 0.0177384 0)
(-1.11184e-10 0.0177384 0)
(-7.49704e-12 0.0177384 0)
(9.2277e-11 0.0177384 0)
(-2.71998e-11 0.0177384 0)
(-1.92495e-10 0.0177384 0)
(-1.24011e-09 0.0177384 0)
(-1.55921e-09 0.027725 0)
(1.62146e-09 0.027725 0)
(1.85186e-09 0.027725 0)
(7.96374e-10 0.027725 0)
(-1.47068e-10 0.027725 0)
(5.1357e-11 0.027725 0)
(1.97078e-10 0.027725 0)
(-3.03446e-11 0.027725 0)
(-3.42659e-10 0.027725 0)
(-2.43885e-09 0.027725 0)
(-3.0127e-09 0.0417894 0)
(2.12724e-09 0.0417894 0)
(3.10422e-09 0.0417894 0)
(1.71414e-09 0.0417894 0)
(-1.70947e-11 0.0417894 0)
(2.30173e-10 0.0417894 0)
(4.69853e-10 0.0417894 0)
(-9.38682e-12 0.0417894 0)
(-5.44279e-10 0.0417894 0)
(-4.06216e-09 0.0417894 0)
(-4.8946e-09 0.0617161 0)
(1.49529e-09 0.0617161 0)
(4.06598e-09 0.0617161 0)
(3.15404e-09 0.0617161 0)
(5.58079e-10 0.0617161 0)
(6.83254e-10 0.0617161 0)
(8.81134e-10 0.0617161 0)
(7.13083e-11 0.0617162 0)
(-6.10592e-10 0.0617162 0)
(-5.40389e-09 0.0617162 0)
(-5.56278e-09 0.0898115 0)
(-1.29751e-09 0.0898115 0)
(2.89762e-09 0.0898114 0)
(4.14885e-09 0.0898114 0)
(1.62771e-09 0.0898114 0)
(1.10509e-09 0.0898114 0)
(1.70047e-09 0.0898114 0)
(6.65032e-10 0.0898114 0)
(-6.63008e-10 0.0898114 0)
(-4.62147e-09 0.0898114 0)
(-4.80113e-10 0.128274 0)
(-5.06225e-09 0.128274 0)
(-2.21673e-09 0.128274 0)
(1.6573e-09 0.128274 0)
(1.09233e-09 0.128274 0)
(9.15542e-10 0.128274 0)
(2.59293e-09 0.128274 0)
(1.44868e-09 0.128274 0)
(-9.88417e-10 0.128274 0)
(1.04073e-09 0.128274 0)
(1.90423e-08 0.17575 0)
(-8.32365e-09 0.17575 0)
(-1.00339e-08 0.17575 0)
(-6.86116e-09 0.17575 0)
(-7.31071e-09 0.175749 0)
(-4.88683e-09 0.175749 0)
(5.01099e-11 0.175749 0)
(-3.33136e-10 0.175749 0)
(-1.7478e-09 0.175749 0)
(2.04048e-08 0.175749 0)
(6.35854e-08 0.218571 0)
(-1.09538e-08 0.218571 0)
(-1.493e-08 0.218571 0)
(-2.35916e-08 0.218571 0)
(-2.89197e-08 0.21857 0)
(-2.31729e-08 0.21857 0)
(-1.71909e-08 0.21857 0)
(-2.86172e-09 0.21857 0)
(-2.54489e-09 0.21857 0)
(6.058e-08 0.21857 0)
(1.36159e-07 0.229203 0)
(2.33434e-09 0.229203 0)
(-1.73762e-08 0.229203 0)
(-3.38624e-08 0.229204 0)
(-4.3082e-08 0.229204 0)
(-4.93716e-08 0.229203 0)
(-6.39359e-08 0.229203 0)
(-4.33976e-08 0.229203 0)
(-1.17649e-08 0.229203 0)
(1.24297e-07 0.229203 0)
(1.66921e-07 0.194228 0)
(-1.04971e-08 0.194228 0)
(3.42195e-08 0.194228 0)
(1.52149e-08 0.194228 0)
(-4.86892e-08 0.194228 0)
(-5.00938e-08 0.194228 0)
(-9.53607e-08 0.194228 0)
(-1.05613e-07 0.194228 0)
(-5.7091e-08 0.194228 0)
(1.50989e-07 0.194227 0)
(1.70697e-07 0.13465 0)
(-2.9768e-08 0.13465 0)
(8.67861e-09 0.13465 0)
(4.28718e-08 0.13465 0)
(1.16152e-08 0.13465 0)
(-6.21519e-08 0.13465 0)
(-6.20176e-08 0.13465 0)
(-4.69306e-08 0.13465 0)
(-1.28973e-07 0.13465 0)
(9.59787e-08 0.13465 0)
(1.69745e-07 0.0793274 0)
(-6.22368e-08 0.0793275 0)
(-1.83736e-08 0.0793272 0)
(6.24599e-08 0.0793271 0)
(5.4639e-08 0.079327 0)
(-1.3323e-07 0.0793273 0)
(-1.52597e-07 0.0793269 0)
(-4.09593e-08 0.0793269 0)
(-5.3414e-08 0.0793271 0)
(1.73966e-07 0.0793272 0)
(2.51533e-07 0.039977 0)
(-6.91715e-08 0.039977 0)
(-9.9228e-08 0.0399771 0)
(5.43687e-10 0.0399769 0)
(6.38739e-08 0.0399766 0)
(-9.0288e-08 0.0399768 0)
(-1.60786e-07 0.0399769 0)
(-7.46659e-10 0.0399768 0)
(-5.53931e-08 0.0399769 0)
(1.59662e-07 0.0399768 0)
(2.30497e-07 0.0155511 0)
(-3.82967e-08 0.015551 0)
(-4.89992e-08 0.0155512 0)
(-6.99392e-08 0.0155514 0)
(4.78315e-08 0.0155511 0)
(-5.86173e-08 0.0155511 0)
(-1.48223e-07 0.0155515 0)
(-3.49639e-08 0.0155515 0)
(-8.11071e-08 0.0155513 0)
(2.01817e-07 0.0155511 0)
(1.88033e-07 0.00153702 0)
(-2.96939e-08 0.00153711 0)
(3.70963e-08 0.00153703 0)
(-2.2299e-08 0.00153723 0)
(-2.03671e-08 0.00153716 0)
(2.05559e-08 0.00153713 0)
(-4.88619e-08 0.00153727 0)
(-6.67885e-08 0.00153732 0)
(-1.55901e-07 0.00153735 0)
(9.82255e-08 0.00153735 0)
(1.40798e-07 -0.00606439 0)
(-3.38061e-08 -0.00606441 0)
(-1.56125e-08 -0.00606443 0)
(-2.88771e-08 -0.00606449 0)
(1.79866e-08 -0.00606448 0)
(-2.76461e-08 -0.00606458 0)
(-8.8475e-08 -0.00606448 0)
(3.66413e-09 -0.00606455 0)
(-5.46975e-08 -0.00606446 0)
(8.66652e-08 -0.00606425 0)
(1.24189e-07 -0.00996215 0)
(-4.36378e-08 -0.00996218 0)
(6.74769e-09 -0.00996221 0)
(-4.4037e-08 -0.00996216 0)
(-6.54962e-08 -0.00996226 0)
(2.4648e-08 -0.00996227 0)
(-2.97106e-08 -0.00996219 0)
(-6.45015e-08 -0.00996207 0)
(-3.57302e-08 -0.00996217 0)
(1.27528e-07 -0.0099621 0)
(1.01229e-07 -0.0118016 0)
(-6.0418e-08 -0.0118016 0)
(-8.37359e-09 -0.0118016 0)
(-5.41134e-08 -0.0118017 0)
(-2.47636e-08 -0.0118016 0)
(2.80743e-09 -0.0118017 0)
(3.44287e-09 -0.0118017 0)
(2.12009e-08 -0.0118017 0)
(-7.1535e-08 -0.0118016 0)
(9.0523e-08 -0.0118016 0)
(1.17568e-07 -0.0125298 0)
(-5.00702e-08 -0.0125298 0)
(-1.06123e-08 -0.0125297 0)
(-7.95609e-09 -0.0125298 0)
(-7.53561e-08 -0.0125297 0)
(-6.80137e-08 -0.0125299 0)
(-3.10969e-08 -0.0125298 0)
(2.73165e-08 -0.0125299 0)
(-5.02564e-10 -0.0125298 0)
(9.87236e-08 -0.0125298 0)
(1.06437e-07 -0.0126749 0)
(-1.67244e-08 -0.0126749 0)
(4.22857e-09 -0.0126749 0)
(-2.78041e-08 -0.0126749 0)
(-6.88425e-08 -0.0126749 0)
(-8.24479e-08 -0.0126749 0)
(-2.00124e-09 -0.0126749 0)
(1.97121e-08 -0.0126749 0)
(-3.98222e-08 -0.0126749 0)
(1.07264e-07 -0.0126749 0)
(8.54158e-08 -0.0125233 0)
(-4.17019e-08 -0.0125233 0)
(1.04932e-08 -0.0125233 0)
(4.78426e-09 -0.0125233 0)
(-5.62969e-08 -0.0125233 0)
(-6.67398e-08 -0.0125232 0)
(-1.96383e-08 -0.0125232 0)
(-2.72302e-09 -0.0125232 0)
(-1.99737e-08 -0.0125232 0)
(1.06381e-07 -0.0125232 0)
(4.99426e-08 -0.0122221 0)
(-2.70498e-08 -0.012222 0)
(1.99056e-09 -0.012222 0)
(2.25393e-08 -0.0122221 0)
(5.20907e-09 -0.012222 0)
(-1.10702e-08 -0.012222 0)
(-1.29761e-08 -0.012222 0)
(-2.22843e-08 -0.012222 0)
(-4.41661e-08 -0.012222 0)
(3.78651e-08 -0.012222 0)
(5.15593e-08 -0.0118342 0)
(-1.07278e-08 -0.0118342 0)
(-3.82039e-10 -0.0118341 0)
(-1.16294e-08 -0.0118342 0)
(-1.03112e-09 -0.0118342 0)
(-1.17112e-08 -0.0118342 0)
(-3.49782e-08 -0.0118342 0)
(-3.68785e-08 -0.0118342 0)
(-1.51679e-08 -0.0118342 0)
(7.09468e-08 -0.0118342 0)
(4.67275e-08 -0.0113619 0)
(1.23103e-09 -0.0113619 0)
(-3.80174e-09 -0.0113619 0)
(-1.71916e-08 -0.0113619 0)
(-1.24614e-08 -0.0113619 0)
(-1.44774e-08 -0.0113619 0)
(-1.10966e-08 -0.0113619 0)
(-1.04008e-08 -0.0113619 0)
(-1.93678e-08 -0.0113619 0)
(4.08388e-08 -0.0113619 0)
(1.33252e-08 -0.0107436 0)
(-3.4602e-09 -0.0107436 0)
(4.43097e-09 -0.0107436 0)
(2.66648e-09 -0.0107436 0)
(-2.46299e-09 -0.0107436 0)
(-9.56836e-09 -0.0107436 0)
(-1.00873e-08 -0.0107436 0)
(-3.07722e-09 -0.0107436 0)
(-5.20587e-09 -0.0107436 0)
(1.34393e-08 -0.0107436 0)
(-8.12779e-09 -0.00982211 0)
(3.15973e-09 -0.0098221 0)
(4.73967e-09 -0.0098221 0)
(4.06169e-10 -0.0098221 0)
(2.57125e-09 -0.0098221 0)
(1.60091e-09 -0.0098221 0)
(8.66322e-10 -0.0098221 0)
(9.24488e-10 -0.00982209 0)
(-4.94551e-11 -0.00982209 0)
(-6.09129e-09 -0.00982208 0)
(-1.68255e-08 -0.00829864 0)
(7.86402e-09 -0.00829863 0)
(7.36768e-09 -0.00829863 0)
(-3.39905e-10 -0.00829863 0)
(-5.24022e-09 -0.00829862 0)
(5.72074e-10 -0.00829863 0)
(3.45364e-09 -0.00829863 0)
(4.80656e-09 -0.00829863 0)
(1.12444e-08 -0.00829862 0)
(-1.29028e-08 -0.00829862 0)
(-3.46347e-08 -0.00579197 0)
(3.12667e-08 -0.00579197 0)
(1.66879e-08 -0.00579197 0)
(1.46155e-08 -0.00579196 0)
(-1.29496e-09 -0.00579195 0)
(-1.86616e-08 -0.00579195 0)
(5.40532e-09 -0.00579195 0)
(2.46964e-08 -0.00579194 0)
(1.38364e-08 -0.00579194 0)
(-5.19171e-08 -0.00579194 0)
(-7.51756e-08 -0.00212251 0)
(-7.4525e-09 -0.00212252 0)
(2.72568e-08 -0.00212252 0)
(3.71698e-08 -0.00212252 0)
(2.07327e-08 -0.00212252 0)
(1.92025e-08 -0.00212251 0)
(1.76473e-08 -0.0021225 0)
(1.6231e-08 -0.0021225 0)
(9.53877e-09 -0.0021225 0)
(-6.51508e-08 -0.00212251 0)
)
;

boundaryField
{
    INLET
    {
        type            cyclic;
    }
    OUTLET
    {
        type            cyclic;
    }
    WALL
    {
        type            extrapolatedCalculated;
        value           nonuniform List<vector> 10((-5.088e-12 0.000472482 0) (8.74667e-12 0.000472482 0) (7.51021e-12 0.000472483 0) (2.05357e-12 0.000472483 0) (-1.63462e-12 0.000472483 0) (-5.46261e-13 0.000472483 0) (8.161e-13 0.000472483 0) (-2.2325e-13 0.000472483 0) (-1.60369e-12 0.000472483 0) (-1.00307e-11 0.000472483 0));
    }
    CENTER
    {
        type            symmetryPlane;
    }
    frontAndBackPlanes
    {
        type            empty;
    }
}


// ************************************************************************* //
