/*--------------------------------*- C++ -*----------------------------------*\
| =========                 |                                                 |
| \\      /  F ield         | OpenFOAM: The Open Source CFD Toolbox           |
|  \\    /   O peration     | Version:  v1806                                 |
|   \\  /    A nd           | Web:      www.OpenFOAM.com                      |
|    \\/     M anipulation  |                                                 |
\*---------------------------------------------------------------------------*/
FoamFile
{
    version     2.0;
    format      ascii;
    class       volScalarField;
    location    "10000";
    object      k;
}
// * * * * * * * * * * * * * * * * * * * * * * * * * * * * * * * * * * * * * //

dimensions      [0 2 -2 0 0 0 0];


internalField   nonuniform List<scalar> 
320
(
3.84068e-07
3.84068e-07
3.84069e-07
3.84069e-07
3.84069e-07
3.84069e-07
3.84069e-07
3.84069e-07
3.84069e-07
3.84069e-07
5.8148e-06
5.81481e-06
5.81482e-06
5.81482e-06
5.81482e-06
5.81482e-06
5.81482e-06
5.81482e-06
5.81482e-06
5.81482e-06
2.10411e-05
2.10411e-05
2.10411e-05
2.10411e-05
2.10411e-05
2.10411e-05
2.10411e-05
2.10411e-05
2.10411e-05
2.10411e-05
5.26203e-05
5.26203e-05
5.26204e-05
5.26204e-05
5.26204e-05
5.26204e-05
5.26204e-05
5.26204e-05
5.26204e-05
5.26204e-05
0.000111349
0.000111349
0.000111349
0.000111349
0.000111349
0.000111349
0.000111349
0.000111349
0.000111349
0.000111349
0.000215085
0.000215085
0.000215086
0.000215086
0.000215086
0.000215086
0.000215086
0.000215086
0.000215086
0.000215086
0.000393435
0.000393434
0.000393435
0.000393435
0.000393435
0.000393435
0.000393435
0.000393435
0.000393435
0.000393435
0.000695149
0.000695149
0.000695149
0.000695149
0.00069515
0.00069515
0.00069515
0.00069515
0.00069515
0.00069515
0.00119853
0.00119853
0.00119853
0.00119853
0.00119853
0.00119853
0.00119853
0.00119853
0.00119853
0.00119853
0.00201995
0.00201995
0.00201995
0.00201995
0.00201995
0.00201995
0.00201995
0.00201995
0.00201995
0.00201995
0.00328732
0.00328732
0.00328732
0.00328732
0.00328732
0.00328732
0.00328732
0.00328731
0.00328732
0.00328731
0.00500137
0.00500137
0.00500137
0.00500137
0.00500136
0.00500136
0.00500136
0.00500135
0.00500135
0.00500135
0.00686425
0.00686425
0.00686425
0.00686425
0.00686425
0.00686425
0.00686425
0.00686424
0.00686424
0.00686423
0.00846738
0.00846737
0.00846737
0.00846738
0.00846738
0.00846738
0.00846737
0.00846737
0.00846737
0.00846736
0.00961722
0.00961722
0.00961722
0.00961722
0.00961722
0.00961722
0.00961721
0.00961721
0.00961721
0.0096172
0.010328
0.0103281
0.010328
0.010328
0.010328
0.010328
0.010328
0.010328
0.010328
0.010328
0.0106918
0.0106918
0.0106918
0.0106918
0.0106918
0.0106918
0.0106918
0.0106918
0.0106918
0.0106918
0.0108031
0.0108031
0.0108031
0.0108031
0.0108031
0.0108031
0.0108031
0.0108031
0.0108031
0.0108031
0.0107353
0.0107353
0.0107353
0.0107353
0.0107353
0.0107353
0.0107353
0.0107353
0.0107353
0.0107353
0.0105384
0.0105384
0.0105384
0.0105384
0.0105384
0.0105384
0.0105384
0.0105384
0.0105384
0.0105384
0.0102443
0.0102443
0.0102443
0.0102443
0.0102443
0.0102443
0.0102443
0.0102443
0.0102443
0.0102443
0.00987159
0.00987159
0.00987159
0.00987159
0.00987159
0.00987158
0.00987158
0.00987158
0.00987159
0.00987158
0.00942998
0.00942997
0.00942998
0.00942997
0.00942997
0.00942997
0.00942997
0.00942997
0.00942997
0.00942996
0.00892292
0.00892292
0.00892292
0.00892292
0.00892292
0.00892291
0.00892291
0.00892291
0.00892291
0.00892291
0.00834987
0.00834987
0.00834987
0.00834987
0.00834987
0.00834987
0.00834987
0.00834987
0.00834986
0.00834986
0.00770792
0.00770791
0.00770791
0.00770791
0.00770791
0.00770791
0.00770791
0.00770791
0.00770791
0.00770791
0.00699379
0.00699379
0.00699379
0.00699379
0.00699379
0.00699379
0.00699379
0.00699379
0.00699378
0.00699378
0.00620732
0.00620732
0.00620732
0.00620732
0.00620732
0.00620732
0.00620732
0.00620732
0.00620732
0.00620732
0.00535899
0.00535899
0.00535899
0.00535899
0.00535899
0.00535899
0.00535899
0.00535899
0.00535899
0.00535899
0.00448706
0.00448706
0.00448706
0.00448706
0.00448706
0.00448706
0.00448706
0.00448706
0.00448706
0.00448706
0.00369017
0.00369017
0.00369017
0.00369017
0.00369017
0.00369017
0.00369017
0.00369017
0.00369017
0.00369018
0.00315871
0.00315871
0.00315871
0.00315872
0.00315872
0.00315872
0.00315872
0.00315872
0.00315872
0.00315872
)
;

boundaryField
{
    INLET
    {
        type            cyclic;
    }
    OUTLET
    {
        type            cyclic;
    }
    WALL
    {
        type            fixedValue;
        value           uniform 1e-10;
    }
    CENTER
    {
        type            symmetryPlane;
    }
    frontAndBackPlanes
    {
        type            empty;
    }
}


// ************************************************************************* //
