/*--------------------------------*- C++ -*----------------------------------*\
| =========                 |                                                 |
| \\      /  F ield         | OpenFOAM: The Open Source CFD Toolbox           |
|  \\    /   O peration     | Version:  v1806                                 |
|   \\  /    A nd           | Web:      www.OpenFOAM.com                      |
|    \\/     M anipulation  |                                                 |
\*---------------------------------------------------------------------------*/
FoamFile
{
    version     2.0;
    format      ascii;
    class       volScalarField;
    location    "10000";
    object      nut;
}
// * * * * * * * * * * * * * * * * * * * * * * * * * * * * * * * * * * * * * //

dimensions      [0 2 -1 0 0 0 0];


internalField   nonuniform List<scalar> 
320
(
2.81622e-11
2.81622e-11
2.81622e-11
2.81623e-11
2.81622e-11
2.81622e-11
2.81622e-11
2.81622e-11
2.81622e-11
2.81622e-11
1.79415e-09
1.79415e-09
1.79416e-09
1.79416e-09
1.79416e-09
1.79415e-09
1.79416e-09
1.79416e-09
1.79416e-09
1.79415e-09
1.19201e-08
1.19201e-08
1.19201e-08
1.19201e-08
1.19201e-08
1.19201e-08
1.19201e-08
1.19201e-08
1.19201e-08
1.19201e-08
4.48343e-08
4.48344e-08
4.48344e-08
4.48344e-08
4.48344e-08
4.48344e-08
4.48344e-08
4.48344e-08
4.48344e-08
4.48344e-08
1.30864e-07
1.30864e-07
1.30865e-07
1.30865e-07
1.30865e-07
1.30865e-07
1.30865e-07
1.30865e-07
1.30865e-07
1.30865e-07
3.35055e-07
3.35055e-07
3.35055e-07
3.35055e-07
3.35055e-07
3.35055e-07
3.35055e-07
3.35055e-07
3.35055e-07
3.35055e-07
8.04886e-07
8.04886e-07
8.04887e-07
8.04887e-07
8.04887e-07
8.04887e-07
8.04888e-07
8.04888e-07
8.04888e-07
8.04887e-07
1.89744e-06
1.89744e-06
1.89744e-06
1.89744e-06
1.89744e-06
1.89744e-06
1.89744e-06
1.89744e-06
1.89744e-06
1.89744e-06
4.53497e-06
4.53497e-06
4.53497e-06
4.53497e-06
4.53497e-06
4.53497e-06
4.53497e-06
4.53497e-06
4.53498e-06
4.53497e-06
1.13937e-05
1.13937e-05
1.13937e-05
1.13937e-05
1.13937e-05
1.13937e-05
1.13937e-05
1.13937e-05
1.13937e-05
1.13937e-05
2.98604e-05
2.98604e-05
2.98604e-05
2.98604e-05
2.98604e-05
2.98603e-05
2.98603e-05
2.98603e-05
2.98604e-05
2.98604e-05
7.42639e-05
7.42639e-05
7.42639e-05
7.42638e-05
7.42638e-05
7.42637e-05
7.42636e-05
7.42635e-05
7.42636e-05
7.42636e-05
0.00015699
0.00015699
0.00015699
0.000156991
0.00015699
0.00015699
0.00015699
0.00015699
0.00015699
0.00015699
0.000280126
0.000280127
0.000280126
0.000280127
0.000280127
0.000280127
0.000280127
0.000280127
0.000280126
0.000280126
0.000443446
0.000443446
0.000443445
0.000443445
0.000443447
0.000443447
0.000443445
0.000443445
0.000443445
0.000443444
0.000647552
0.000647554
0.000647552
0.000647551
0.000647553
0.000647554
0.000647551
0.00064755
0.000647552
0.00064755
0.000892273
0.000892271
0.000892272
0.00089227
0.000892271
0.000892273
0.00089227
0.00089227
0.000892271
0.000892269
0.00117578
0.00117578
0.00117578
0.00117578
0.00117578
0.00117578
0.00117578
0.00117578
0.00117578
0.00117578
0.00149451
0.00149451
0.00149451
0.00149451
0.00149451
0.00149451
0.00149451
0.00149451
0.00149451
0.00149451
0.00184332
0.00184332
0.00184332
0.00184332
0.00184332
0.00184332
0.00184332
0.00184332
0.00184332
0.00184332
0.00221566
0.00221566
0.00221566
0.00221566
0.00221566
0.00221566
0.00221565
0.00221566
0.00221566
0.00221566
0.00260339
0.00260339
0.00260338
0.00260339
0.00260339
0.00260338
0.00260338
0.00260338
0.00260338
0.00260339
0.00299644
0.00299644
0.00299644
0.00299644
0.00299644
0.00299644
0.00299643
0.00299644
0.00299644
0.00299644
0.00338226
0.00338226
0.00338226
0.00338226
0.00338226
0.00338226
0.00338226
0.00338226
0.00338226
0.00338226
0.0037453
0.0037453
0.0037453
0.0037453
0.0037453
0.0037453
0.00374531
0.00374531
0.00374531
0.00374531
0.00406672
0.00406672
0.00406672
0.00406672
0.00406672
0.00406672
0.00406672
0.00406672
0.00406671
0.00406672
0.00432486
0.00432486
0.00432486
0.00432486
0.00432486
0.00432486
0.00432486
0.00432486
0.00432485
0.00432486
0.0044979
0.0044979
0.0044979
0.0044979
0.0044979
0.0044979
0.0044979
0.0044979
0.0044979
0.0044979
0.00457166
0.00457166
0.00457166
0.00457166
0.00457166
0.00457166
0.00457166
0.00457166
0.00457166
0.00457166
0.00455817
0.00455816
0.00455817
0.00455816
0.00455817
0.00455816
0.00455816
0.00455816
0.00455816
0.00455816
0.00452209
0.00452209
0.0045221
0.0045221
0.0045221
0.00452209
0.00452209
0.00452209
0.00452209
0.00452209
0.00453997
0.00453997
0.00453996
0.00453997
0.00453998
0.00453998
0.00453998
0.00453998
0.00453998
0.00453998
)
;

boundaryField
{
    INLET
    {
        type            cyclic;
    }
    OUTLET
    {
        type            cyclic;
    }
    WALL
    {
        type            fixedValue;
        value           uniform 0;
    }
    CENTER
    {
        type            symmetryPlane;
    }
    frontAndBackPlanes
    {
        type            empty;
    }
}


// ************************************************************************* //
