/*--------------------------------*- C++ -*----------------------------------*\
| =========                 |                                                 |
| \\      /  F ield         | OpenFOAM: The Open Source CFD Toolbox           |
|  \\    /   O peration     | Version:  v1806                                 |
|   \\  /    A nd           | Web:      www.OpenFOAM.com                      |
|    \\/     M anipulation  |                                                 |
\*---------------------------------------------------------------------------*/
FoamFile
{
    version     2.0;
    format      ascii;
    class       volScalarField;
    location    "10000";
    object      p;
}
// * * * * * * * * * * * * * * * * * * * * * * * * * * * * * * * * * * * * * //

dimensions      [0 2 -2 0 0 0 0];


internalField   nonuniform List<scalar> 
320
(
-1.71483e-17
4.08463e-10
8.64175e-10
1.20624e-09
1.65226e-09
3.24727e-09
4.95011e-09
4.46813e-09
3.98823e-09
2.12467e-09
8.3361e-12
4.14671e-10
8.65946e-10
1.20858e-09
1.65726e-09
3.24762e-09
4.9427e-09
4.45993e-09
3.98054e-09
2.12397e-09
1.75215e-11
4.22238e-10
8.68325e-10
1.21131e-09
1.66296e-09
3.24833e-09
4.93452e-09
4.45003e-09
3.97145e-09
2.12287e-09
2.51173e-11
4.29683e-10
8.71147e-10
1.21365e-09
1.66808e-09
3.24983e-09
4.92776e-09
4.44066e-09
3.96267e-09
2.12095e-09
2.98962e-11
4.37037e-10
8.74725e-10
1.21519e-09
1.67215e-09
3.25294e-09
4.92362e-09
4.43237e-09
3.95438e-09
2.11724e-09
2.97551e-11
4.4482e-10
8.79791e-10
1.21527e-09
1.67443e-09
3.25907e-09
4.92414e-09
4.42574e-09
3.94666e-09
2.10987e-09
2.06674e-11
4.54201e-10
8.88037e-10
1.21306e-09
1.67377e-09
3.27096e-09
4.93282e-09
4.42147e-09
3.93949e-09
2.09509e-09
-5.31478e-12
4.67049e-10
9.02789e-10
1.20836e-09
1.66942e-09
3.29436e-09
4.95612e-09
4.41988e-09
3.93177e-09
2.06513e-09
-6.35299e-11
4.84225e-10
9.27198e-10
1.20151e-09
1.66192e-09
3.34136e-09
5.00856e-09
4.42294e-09
3.92062e-09
2.00474e-09
-1.73232e-10
5.0184e-10
9.53344e-10
1.18452e-09
1.64762e-09
3.42855e-09
5.11969e-09
4.44438e-09
3.90735e-09
1.89548e-09
-3.15036e-10
5.2218e-10
9.43721e-10
1.10744e-09
1.5933e-09
3.5522e-09
5.30949e-09
4.51867e-09
3.9233e-09
1.75428e-09
-3.29087e-10
6.33323e-10
8.82791e-10
8.57951e-10
1.42649e-09
3.63754e-09
5.44444e-09
4.57091e-09
4.03014e-09
1.75505e-09
-8.77906e-11
8.85547e-10
1.17158e-09
6.01276e-10
9.67867e-10
3.75116e-09
5.33987e-09
4.06814e-09
4.06325e-09
2.14865e-09
2.92288e-10
1.18118e-09
1.87174e-09
9.3487e-10
3.99762e-10
3.79473e-09
5.43775e-09
3.15722e-09
3.45324e-09
2.38677e-09
7.40037e-10
1.28225e-09
2.18498e-09
1.9606e-09
6.75946e-10
3.093e-09
5.11763e-09
2.66396e-09
2.73618e-09
2.45497e-09
1.75763e-09
1.54991e-09
1.45365e-09
2.62354e-09
1.94661e-09
1.99142e-09
3.33754e-09
2.52267e-09
2.95935e-09
2.76723e-09
3.09988e-09
1.77114e-09
1.84098e-10
2.2996e-09
3.43183e-09
1.61935e-09
1.5865e-09
2.54359e-09
3.15246e-09
3.22109e-09
3.52479e-09
1.56378e-09
2.90841e-10
2.23115e-09
4.15105e-09
1.80961e-09
1.35684e-09
2.33715e-09
2.13126e-09
3.51308e-09
3.23142e-09
1.81464e-09
1.28386e-09
2.35207e-09
3.94653e-09
1.97598e-09
1.41756e-09
2.37053e-09
1.57541e-09
2.94155e-09
3.34522e-09
2.52728e-09
2.02498e-09
1.97582e-09
2.95787e-09
2.71158e-09
8.09585e-10
1.57102e-09
2.31712e-09
2.66907e-09
3.44051e-09
3.04298e-09
2.33155e-09
1.22512e-09
2.49623e-09
4.18584e-09
1.10576e-09
3.07245e-10
2.08073e-09
2.6936e-09
4.11962e-09
3.16044e-09
2.02835e-09
1.36124e-09
2.35758e-09
3.02755e-09
1.08046e-09
5.2998e-10
1.86876e-09
3.37556e-09
4.41354e-09
3.75617e-09
2.22551e-09
1.70135e-09
8.82796e-10
-7.14177e-11
8.60715e-10
2.41977e-09
3.07221e-09
3.6489e-09
3.84947e-09
3.98129e-09
2.93716e-09
1.6792e-09
4.03704e-10
-1.01335e-09
4.97113e-10
3.33246e-09
3.76734e-09
3.47518e-09
2.59052e-09
2.31329e-09
2.82428e-09
2.77667e-09
1.64596e-09
5.05507e-10
1.02058e-09
2.72701e-09
3.37344e-09
3.1323e-09
1.29891e-09
1.2072e-09
2.08299e-09
2.78776e-09
2.61435e-09
2.57882e-09
2.85265e-09
2.84388e-09
2.60587e-09
2.03712e-09
2.43096e-09
2.20195e-09
2.40136e-09
2.53099e-09
2.44378e-09
2.50012e-09
2.25704e-09
1.76769e-09
1.92163e-09
2.45402e-09
2.43135e-09
2.2796e-09
2.26812e-09
2.43318e-09
2.57956e-09
2.47062e-09
2.19252e-09
1.92237e-09
1.98324e-09
2.34902e-09
2.16052e-09
2.29935e-09
2.50015e-09
2.7112e-09
2.739e-09
2.5098e-09
2.13416e-09
1.91307e-09
1.92095e-09
2.02135e-09
2.20694e-09
2.13518e-09
2.12527e-09
2.23937e-09
2.43326e-09
2.56478e-09
2.45156e-09
2.27969e-09
2.23775e-09
2.23575e-09
2.6407e-09
2.58725e-09
2.39852e-09
2.0555e-09
1.80163e-09
1.78278e-09
2.07447e-09
2.40554e-09
2.53945e-09
2.62371e-09
2.24483e-09
2.36211e-09
2.46197e-09
2.46114e-09
2.3193e-09
2.16582e-09
2.18877e-09
2.26581e-09
2.2399e-09
2.1999e-09
)
;

boundaryField
{
    INLET
    {
        type            cyclic;
    }
    OUTLET
    {
        type            cyclic;
    }
    WALL
    {
        type            zeroGradient;
    }
    CENTER
    {
        type            symmetryPlane;
    }
    frontAndBackPlanes
    {
        type            empty;
    }
}


// ************************************************************************* //
