/*--------------------------------*- C++ -*----------------------------------*\
| =========                 |                                                 |
| \\      /  F ield         | OpenFOAM: The Open Source CFD Toolbox           |
|  \\    /   O peration     | Version:  v1806                                 |
|   \\  /    A nd           | Web:      www.OpenFOAM.com                      |
|    \\/     M anipulation  |                                                 |
\*---------------------------------------------------------------------------*/
FoamFile
{
    version     2.0;
    format      ascii;
    class       surfaceScalarField;
    location    "10000";
    object      phi;
}
// * * * * * * * * * * * * * * * * * * * * * * * * * * * * * * * * * * * * * //

dimensions      [0 3 -1 0 0 0 0];
oriented        oriented;


internalField   nonuniform List<scalar> 
598
(
1.41769e-05
1.18712e-12
1.41769e-05
8.00565e-13
1.41769e-05
2.02533e-13
1.41769e-05
3.11977e-13
1.41769e-05
6.90581e-13
1.41769e-05
2.32096e-14
1.41769e-05
-1.0515e-12
1.41769e-05
-1.0614e-12
1.41769e-05
-1.02872e-12
-7.43459e-14
5.14802e-05
4.99594e-12
5.14802e-05
3.58105e-12
5.14802e-05
9.53516e-13
5.14802e-05
1.37342e-12
5.14802e-05
2.95633e-12
5.14802e-05
1.37113e-13
5.14802e-05
-4.43284e-12
5.14802e-05
-4.74335e-12
5.14802e-05
-4.47293e-12
-3.4822e-13
0.000105974
1.20276e-11
0.000105974
8.98497e-12
0.000105974
2.50685e-12
0.000105974
3.39785e-12
0.000105974
7.21729e-12
0.000105974
4.57689e-13
0.000105974
-1.06843e-11
0.000105974
-1.18833e-11
0.000105974
-1.10674e-11
-9.57245e-13
0.00018402
2.28786e-11
0.00018402
1.76574e-11
0.00018402
5.17085e-12
0.00018402
6.58786e-12
0.00018402
1.39201e-11
0.00018402
1.18826e-12
0.00018402
-2.03429e-11
0.00018402
-2.33208e-11
0.00018402
-2.16267e-11
-2.11274e-12
0.000294151
3.79708e-11
0.000294151
3.01299e-11
0.000294151
9.2705e-12
0.000294151
1.11088e-11
0.000294151
2.34617e-11
0.000294151
2.61291e-12
0.000294151
-3.3801e-11
0.000294151
-3.97913e-11
0.000294151
-3.6902e-11
-4.06028e-12
0.000447772
5.73629e-11
0.000447772
4.6556e-11
0.000447772
1.5032e-11
0.000447772
1.7036e-11
0.000447772
3.61062e-11
0.000447772
5.07043e-12
0.000447772
-5.1171e-11
0.000447772
-6.16726e-11
0.000447772
-5.733e-11
-6.98987e-12
0.000660052
8.04262e-11
0.000660052
6.62344e-11
0.000660052
2.23427e-11
0.000660052
2.42879e-11
0.000660052
5.19008e-11
0.000660052
8.89576e-12
0.000660052
-7.21212e-11
0.000660052
-8.85583e-11
0.000660052
-8.25486e-11
-1.08598e-11
0.000951009
1.05148e-10
0.000951009
8.67336e-11
0.000951009
3.02993e-11
0.000951009
3.25578e-11
0.000951009
7.07e-11
0.000951009
1.44072e-11
0.000951009
-9.56196e-11
0.000951009
-1.18532e-10
0.000951009
-1.10528e-10
-1.51661e-11
0.00134663
1.26498e-10
0.00134663
1.02537e-10
0.00134663
3.63415e-11
0.00134663
4.09834e-11
0.00134663
9.24102e-11
0.00134663
2.22975e-11
0.00134663
-1.19209e-10
0.00134663
-1.4671e-10
0.00134663
-1.36041e-10
-1.91073e-11
0.00187918
1.33624e-10
0.00187918
1.038e-10
0.00187918
3.48428e-11
0.00187918
4.66623e-11
0.00187918
1.16423e-10
0.00187918
3.40202e-11
0.00187918
-1.36613e-10
0.00187918
-1.62657e-10
0.00187918
-1.48277e-10
-2.18258e-11
0.00258384
1.12912e-10
0.00258384
7.71983e-11
0.00258384
1.5475e-11
0.00258384
3.89064e-11
0.00258384
1.3051e-10
0.00258384
5.01794e-11
0.00258384
-1.31241e-10
0.00258384
-1.42111e-10
0.00258384
-1.27656e-10
-2.41726e-11
0.00348788
9.80756e-11
0.00348788
4.59276e-11
0.00348788
-5.75668e-11
0.00348788
-2.09271e-11
0.00348788
1.19142e-10
0.00348788
3.21064e-11
0.00348788
-1.11345e-10
0.00348788
-4.71672e-11
0.00348788
-4.8306e-11
-9.93969e-12
0.00460211
1.2822e-10
0.00460211
4.1305e-11
0.00460211
-1.01389e-10
0.00460211
-1.20681e-10
0.00460211
4.88684e-11
0.00460211
-1.78284e-11
0.00460211
-1.48624e-10
0.00460211
1.08609e-11
0.00460211
7.29252e-11
8.63432e-11
0.00593321
1.48872e-10
0.00593321
4.73472e-11
0.00593321
-5.52233e-11
0.00593321
-1.39763e-10
0.00593321
-5.90536e-11
0.00593321
-3.27574e-11
0.00593321
-1.11836e-10
0.00593321
9.99225e-12
0.00593321
7.7241e-11
1.15181e-10
0.00749974
8.476e-11
0.00749974
-6.65443e-12
0.00749974
1.57446e-11
0.00749974
-3.21566e-11
0.00749974
-6.5038e-11
0.00749974
-4.71682e-11
0.00749974
-2.14343e-11
0.00749974
3.00109e-11
0.00749974
-1.40323e-11
5.59684e-11
0.00933429
4.79745e-11
0.00933429
-1.34453e-11
0.00933429
4.55357e-11
0.00933429
6.14471e-11
0.00933429
6.55738e-12
0.00933429
-6.18652e-11
0.00933429
-5.63275e-11
0.00933429
5.72226e-12
0.00933429
-4.37401e-11
8.14121e-12
0.0114816
9.80175e-11
0.0114816
4.33297e-11
0.0114816
7.33729e-12
0.0114816
2.39012e-11
0.0114816
6.53521e-11
0.0114816
-3.12986e-11
0.0114816
-1.46014e-10
0.0114816
-4.01801e-11
0.0114816
-2.46927e-11
4.24781e-12
0.013998
1.21379e-10
0.013998
5.55503e-11
0.013998
4.34465e-12
0.013998
-8.63754e-12
0.013998
7.58698e-11
0.013998
1.99048e-11
0.013998
-1.39975e-10
0.013998
-8.01021e-11
0.013998
-6.16183e-11
1.32845e-11
0.0169516
7.96744e-11
0.0169516
2.97617e-11
0.0169516
1.12867e-11
0.0169516
8.23671e-12
0.0169516
9.16327e-11
0.0169516
2.75236e-11
0.0169516
-1.03998e-10
0.0169516
-4.49136e-11
0.0169516
-7.85957e-11
-2.06085e-11
0.0204238
5.61439e-11
0.0204238
1.05078e-11
0.0204238
1.32272e-11
0.0204238
3.73044e-11
0.0204238
6.48656e-11
0.0204238
-7.0416e-12
0.0204238
-1.11051e-10
0.0204238
-2.88096e-11
0.0204238
-2.31855e-11
-1.1961e-11
0.0245108
1.35292e-11
0.0245108
-8.39192e-12
0.0245108
4.97733e-12
0.0245108
2.92957e-11
0.0245108
5.50324e-11
0.0245108
2.33677e-11
0.0245108
-4.57459e-11
0.0245108
-2.24923e-11
0.0245108
-2.7793e-11
-2.17793e-11
0.0293258
1.35505e-12
0.0293258
-3.86857e-11
0.0293258
-2.08627e-11
0.0293258
3.74111e-11
0.0293258
7.15945e-11
0.0293258
2.85868e-11
0.0293258
-5.55008e-12
0.0293258
-1.22929e-11
0.0293258
-4.65368e-11
-1.50192e-11
0.035002
3.71743e-12
0.035002
-2.86749e-11
0.035002
-6.97501e-12
0.035002
4.88685e-11
0.035002
5.2119e-11
0.035002
-9.59444e-12
0.035002
-1.36742e-11
0.035002
-3.30038e-12
0.035002
-3.51872e-11
-7.29873e-12
0.0416953
1.95343e-11
0.0416953
1.66356e-12
0.0416953
2.86371e-11
0.0416953
4.98886e-11
0.0416953
2.73048e-11
0.0416953
-2.32528e-11
0.0416953
-3.93952e-11
0.0416953
-3.31199e-11
0.0416953
-3.6081e-11
4.82041e-12
0.0495877
1.38074e-11
0.0495877
-5.7862e-12
0.0495877
2.4359e-11
0.0495877
4.78387e-11
0.0495877
2.44712e-11
0.0495877
-5.75932e-12
0.0495877
-2.67213e-11
0.0495877
-4.60404e-11
0.0495877
-3.59164e-11
9.74715e-12
0.0588899
-7.58102e-12
0.0588899
-2.30387e-11
0.0588899
-5.7545e-12
0.0588899
1.46858e-11
0.0588899
2.03012e-11
0.0588899
2.28655e-11
0.0588899
1.76417e-11
0.0588899
-9.42135e-12
0.0588899
-2.46072e-11
-5.09101e-12
0.0698423
3.05345e-12
0.0698423
-5.48642e-12
0.0698423
-4.31604e-12
0.0698423
1.69645e-12
0.0698423
1.02048e-11
0.0698423
8.10465e-12
0.0698423
4.38739e-12
0.0698423
-4.19908e-12
0.0698423
-1.33296e-11
-1.15694e-13
0.0827121
-3.5987e-12
0.0827121
-3.42562e-12
0.0827121
1.53717e-12
0.0827121
7.4795e-12
0.0827121
1.0922e-11
0.0827121
3.559e-12
0.0827121
-1.67058e-12
0.0827121
-1.32618e-12
0.0827121
-7.19e-12
-6.2868e-12
0.0977778
-4.42265e-12
0.0977778
1.40103e-12
0.0977778
1.03604e-11
0.0977778
1.21172e-11
0.0977778
7.56108e-12
0.0977778
-5.26949e-12
0.0977778
-7.41478e-12
0.0977778
-2.01314e-12
0.0977778
-6.08377e-12
-6.23533e-12
0.115286
-7.12028e-12
0.115286
-2.63127e-12
0.115286
7.62886e-12
0.115286
1.32697e-11
0.115286
1.11213e-11
0.115286
-5.33471e-12
0.115286
-7.12672e-12
0.115286
-7.35153e-14
0.115286
-4.50323e-12
-5.23026e-12
0.135351
-9.5384e-13
0.135351
2.1294e-12
0.135351
6.81466e-12
0.135351
8.49007e-12
0.135351
2.87666e-12
0.135351
-1.01344e-11
0.135351
-8.94505e-12
0.135351
-1.14648e-13
0.135351
2.07433e-13
-3.70598e-13
0.157789
0.157789
0.157789
0.157789
0.157789
0.157789
0.157789
0.157789
0.157789
)
;

boundaryField
{
    INLET
    {
        type            cyclic;
        value           nonuniform List<scalar> 
32
(
-1.41769e-05
-5.14802e-05
-0.000105974
-0.00018402
-0.000294151
-0.000447772
-0.000660052
-0.000951009
-0.00134663
-0.00187918
-0.00258384
-0.00348788
-0.00460211
-0.00593321
-0.00749974
-0.00933429
-0.0114816
-0.013998
-0.0169516
-0.0204238
-0.0245108
-0.0293258
-0.035002
-0.0416953
-0.0495877
-0.0588899
-0.0698423
-0.0827121
-0.0977778
-0.115286
-0.135351
-0.157789
)
;
    }
    OUTLET
    {
        type            cyclic;
        value           nonuniform List<scalar> 
32
(
1.41769e-05
5.14802e-05
0.000105974
0.00018402
0.000294151
0.000447772
0.000660052
0.000951009
0.00134663
0.00187918
0.00258384
0.00348788
0.00460211
0.00593321
0.00749974
0.00933429
0.0114816
0.013998
0.0169516
0.0204238
0.0245108
0.0293258
0.035002
0.0416953
0.0495877
0.0588899
0.0698423
0.0827121
0.0977778
0.115286
0.135351
0.157789
)
;
    }
    WALL
    {
        type            calculated;
        value           uniform 0;
    }
    CENTER
    {
        type            symmetryPlane;
        value           uniform 0;
    }
    frontAndBackPlanes
    {
        type            empty;
        value           nonuniform 0();
    }
}


// ************************************************************************* //
