/*--------------------------------*- C++ -*----------------------------------*\
| =========                 |                                                 |
| \\      /  F ield         | OpenFOAM: The Open Source CFD Toolbox           |
|  \\    /   O peration     | Version:  v1806                                 |
|   \\  /    A nd           | Web:      www.OpenFOAM.com                      |
|    \\/     M anipulation  |                                                 |
\*---------------------------------------------------------------------------*/
FoamFile
{
    version     2.0;
    format      ascii;
    class       volVectorField;
    location    "10000";
    object      PointsC;
}
// * * * * * * * * * * * * * * * * * * * * * * * * * * * * * * * * * * * * * //

dimensions      [0 1 0 0 0 0 0];


internalField   nonuniform List<vector> 
320
(
(0.025 0.000812661 0.5)
(0.075 0.000812661 0.5)
(0.125 0.000812661 0.5)
(0.175 0.000812661 0.5)
(0.225 0.000812661 0.5)
(0.275 0.000812661 0.5)
(0.325 0.000812661 0.5)
(0.375 0.000812661 0.5)
(0.425 0.000812661 0.5)
(0.475 0.000812661 0.5)
(0.025 0.0025623 0.5)
(0.075 0.0025623 0.5)
(0.125 0.0025623 0.5)
(0.175 0.0025623 0.5)
(0.225 0.0025623 0.5)
(0.275 0.0025623 0.5)
(0.325 0.0025623 0.5)
(0.375 0.0025623 0.5)
(0.425 0.0025623 0.5)
(0.475 0.0025623 0.5)
(0.025 0.0045796 0.5)
(0.075 0.0045796 0.5)
(0.125 0.0045796 0.5)
(0.175 0.0045796 0.5)
(0.225 0.0045796 0.5)
(0.275 0.0045796 0.5)
(0.325 0.0045796 0.5)
(0.375 0.0045796 0.5)
(0.425 0.0045796 0.5)
(0.475 0.0045796 0.5)
(0.025 0.00690551 0.5)
(0.075 0.00690551 0.5)
(0.125 0.00690551 0.5)
(0.175 0.00690551 0.5)
(0.225 0.00690551 0.5)
(0.275 0.00690551 0.5)
(0.325 0.00690551 0.5)
(0.375 0.00690551 0.5)
(0.425 0.00690551 0.5)
(0.475 0.00690551 0.5)
(0.025 0.00958722 0.5)
(0.075 0.00958722 0.5)
(0.125 0.00958722 0.5)
(0.175 0.00958722 0.5)
(0.225 0.00958722 0.5)
(0.275 0.00958722 0.5)
(0.325 0.00958722 0.5)
(0.375 0.00958722 0.5)
(0.425 0.00958722 0.5)
(0.475 0.00958722 0.5)
(0.025 0.0126792 0.5)
(0.075 0.0126792 0.5)
(0.125 0.0126792 0.5)
(0.175 0.0126792 0.5)
(0.225 0.0126792 0.5)
(0.275 0.0126792 0.5)
(0.325 0.0126792 0.5)
(0.375 0.0126792 0.5)
(0.425 0.0126792 0.5)
(0.475 0.0126792 0.5)
(0.025 0.0162442 0.5)
(0.075 0.0162442 0.5)
(0.125 0.0162442 0.5)
(0.175 0.0162442 0.5)
(0.225 0.0162442 0.5)
(0.275 0.0162442 0.5)
(0.325 0.0162442 0.5)
(0.375 0.0162442 0.5)
(0.425 0.0162442 0.5)
(0.475 0.0162442 0.5)
(0.025 0.0203545 0.5)
(0.075 0.0203545 0.5)
(0.125 0.0203545 0.5)
(0.175 0.0203545 0.5)
(0.225 0.0203545 0.5)
(0.275 0.0203545 0.5)
(0.325 0.0203545 0.5)
(0.375 0.0203545 0.5)
(0.425 0.0203545 0.5)
(0.475 0.0203545 0.5)
(0.025 0.0250936 0.5)
(0.075 0.0250936 0.5)
(0.125 0.0250936 0.5)
(0.175 0.0250936 0.5)
(0.225 0.0250936 0.5)
(0.275 0.0250936 0.5)
(0.325 0.0250936 0.5)
(0.375 0.0250936 0.5)
(0.425 0.0250936 0.5)
(0.475 0.0250936 0.5)
(0.025 0.0305577 0.5)
(0.075 0.0305577 0.5)
(0.125 0.0305577 0.5)
(0.175 0.0305577 0.5)
(0.225 0.0305577 0.5)
(0.275 0.0305577 0.5)
(0.325 0.0305577 0.5)
(0.375 0.0305577 0.5)
(0.425 0.0305577 0.5)
(0.475 0.0305577 0.5)
(0.025 0.0368577 0.5)
(0.075 0.0368577 0.5)
(0.125 0.0368577 0.5)
(0.175 0.0368577 0.5)
(0.225 0.0368577 0.5)
(0.275 0.0368577 0.5)
(0.325 0.0368577 0.5)
(0.375 0.0368577 0.5)
(0.425 0.0368577 0.5)
(0.475 0.0368577 0.5)
(0.025 0.0441215 0.5)
(0.075 0.0441215 0.5)
(0.125 0.0441215 0.5)
(0.175 0.0441215 0.5)
(0.225 0.0441215 0.5)
(0.275 0.0441215 0.5)
(0.325 0.0441215 0.5)
(0.375 0.0441215 0.5)
(0.425 0.0441215 0.5)
(0.475 0.0441215 0.5)
(0.025 0.0524965 0.5)
(0.075 0.0524965 0.5)
(0.125 0.0524965 0.5)
(0.175 0.0524965 0.5)
(0.225 0.0524965 0.5)
(0.275 0.0524965 0.5)
(0.325 0.0524965 0.5)
(0.375 0.0524965 0.5)
(0.425 0.0524965 0.5)
(0.475 0.0524965 0.5)
(0.025 0.0621526 0.5)
(0.075 0.0621526 0.5)
(0.125 0.0621526 0.5)
(0.175 0.0621526 0.5)
(0.225 0.0621526 0.5)
(0.275 0.0621526 0.5)
(0.325 0.0621526 0.5)
(0.375 0.0621526 0.5)
(0.425 0.0621526 0.5)
(0.475 0.0621526 0.5)
(0.025 0.073286 0.5)
(0.075 0.073286 0.5)
(0.125 0.073286 0.5)
(0.175 0.073286 0.5)
(0.225 0.073286 0.5)
(0.275 0.073286 0.5)
(0.325 0.073286 0.5)
(0.375 0.073286 0.5)
(0.425 0.073286 0.5)
(0.475 0.073286 0.5)
(0.025 0.0861225 0.5)
(0.075 0.0861225 0.5)
(0.125 0.0861225 0.5)
(0.175 0.0861225 0.5)
(0.225 0.0861225 0.5)
(0.275 0.0861225 0.5)
(0.325 0.0861225 0.5)
(0.375 0.0861225 0.5)
(0.425 0.0861225 0.5)
(0.475 0.0861225 0.5)
(0.025 0.100923 0.5)
(0.075 0.100923 0.5)
(0.125 0.100923 0.5)
(0.175 0.100923 0.5)
(0.225 0.100923 0.5)
(0.275 0.100923 0.5)
(0.325 0.100923 0.5)
(0.375 0.100923 0.5)
(0.425 0.100923 0.5)
(0.475 0.100923 0.5)
(0.025 0.117987 0.5)
(0.075 0.117987 0.5)
(0.125 0.117987 0.5)
(0.175 0.117987 0.5)
(0.225 0.117987 0.5)
(0.275 0.117987 0.5)
(0.325 0.117987 0.5)
(0.375 0.117987 0.5)
(0.425 0.117987 0.5)
(0.475 0.117987 0.5)
(0.025 0.137662 0.5)
(0.075 0.137662 0.5)
(0.125 0.137662 0.5)
(0.175 0.137662 0.5)
(0.225 0.137662 0.5)
(0.275 0.137662 0.5)
(0.325 0.137662 0.5)
(0.375 0.137662 0.5)
(0.425 0.137662 0.5)
(0.475 0.137662 0.5)
(0.025 0.160347 0.5)
(0.075 0.160347 0.5)
(0.125 0.160347 0.5)
(0.175 0.160347 0.5)
(0.225 0.160347 0.5)
(0.275 0.160347 0.5)
(0.325 0.160347 0.5)
(0.375 0.160347 0.5)
(0.425 0.160347 0.5)
(0.475 0.160347 0.5)
(0.025 0.186502 0.5)
(0.075 0.186502 0.5)
(0.125 0.186502 0.5)
(0.175 0.186502 0.5)
(0.225 0.186502 0.5)
(0.275 0.186502 0.5)
(0.325 0.186502 0.5)
(0.375 0.186502 0.5)
(0.425 0.186502 0.5)
(0.475 0.186502 0.5)
(0.025 0.216658 0.5)
(0.075 0.216658 0.5)
(0.125 0.216658 0.5)
(0.175 0.216658 0.5)
(0.225 0.216658 0.5)
(0.275 0.216658 0.5)
(0.325 0.216658 0.5)
(0.375 0.216658 0.5)
(0.425 0.216658 0.5)
(0.475 0.216658 0.5)
(0.025 0.251427 0.5)
(0.075 0.251427 0.5)
(0.125 0.251427 0.5)
(0.175 0.251427 0.5)
(0.225 0.251427 0.5)
(0.275 0.251427 0.5)
(0.325 0.251427 0.5)
(0.375 0.251427 0.5)
(0.425 0.251427 0.5)
(0.475 0.251427 0.5)
(0.025 0.291515 0.5)
(0.075 0.291515 0.5)
(0.125 0.291515 0.5)
(0.175 0.291515 0.5)
(0.225 0.291515 0.5)
(0.275 0.291515 0.5)
(0.325 0.291515 0.5)
(0.375 0.291515 0.5)
(0.425 0.291515 0.5)
(0.475 0.291515 0.5)
(0.025 0.337736 0.5)
(0.075 0.337736 0.5)
(0.125 0.337736 0.5)
(0.175 0.337736 0.5)
(0.225 0.337736 0.5)
(0.275 0.337736 0.5)
(0.325 0.337736 0.5)
(0.375 0.337736 0.5)
(0.425 0.337736 0.5)
(0.475 0.337736 0.5)
(0.025 0.391028 0.5)
(0.075 0.391028 0.5)
(0.125 0.391028 0.5)
(0.175 0.391028 0.5)
(0.225 0.391028 0.5)
(0.275 0.391028 0.5)
(0.325 0.391028 0.5)
(0.375 0.391028 0.5)
(0.425 0.391028 0.5)
(0.475 0.391028 0.5)
(0.025 0.452472 0.5)
(0.075 0.452472 0.5)
(0.125 0.452472 0.5)
(0.175 0.452472 0.5)
(0.225 0.452472 0.5)
(0.275 0.452472 0.5)
(0.325 0.452472 0.5)
(0.375 0.452472 0.5)
(0.425 0.452472 0.5)
(0.475 0.452472 0.5)
(0.025 0.523316 0.5)
(0.075 0.523316 0.5)
(0.125 0.523316 0.5)
(0.175 0.523316 0.5)
(0.225 0.523316 0.5)
(0.275 0.523316 0.5)
(0.325 0.523316 0.5)
(0.375 0.523316 0.5)
(0.425 0.523316 0.5)
(0.475 0.523316 0.5)
(0.025 0.604998 0.5)
(0.075 0.604998 0.5)
(0.125 0.604998 0.5)
(0.175 0.604998 0.5)
(0.225 0.604998 0.5)
(0.275 0.604998 0.5)
(0.325 0.604998 0.5)
(0.375 0.604998 0.5)
(0.425 0.604998 0.5)
(0.475 0.604998 0.5)
(0.025 0.699175 0.5)
(0.075 0.699175 0.5)
(0.125 0.699175 0.5)
(0.175 0.699175 0.5)
(0.225 0.699175 0.5)
(0.275 0.699175 0.5)
(0.325 0.699175 0.5)
(0.375 0.699175 0.5)
(0.425 0.699175 0.5)
(0.475 0.699175 0.5)
(0.025 0.807759 0.5)
(0.075 0.807759 0.5)
(0.125 0.807759 0.5)
(0.175 0.807759 0.5)
(0.225 0.807759 0.5)
(0.275 0.807759 0.5)
(0.325 0.807759 0.5)
(0.375 0.807759 0.5)
(0.425 0.807759 0.5)
(0.475 0.807759 0.5)
(0.025 0.932955 0.5)
(0.075 0.932955 0.5)
(0.125 0.932955 0.5)
(0.175 0.932955 0.5)
(0.225 0.932955 0.5)
(0.275 0.932955 0.5)
(0.325 0.932955 0.5)
(0.375 0.932955 0.5)
(0.425 0.932955 0.5)
(0.475 0.932955 0.5)
)
;

boundaryField
{
    INLET
    {
        type            sliced;
        value           nonuniform List<vector> 
32
(
(0 0.000812661 0.5)
(0 0.0025623 0.5)
(0 0.0045796 0.5)
(0 0.00690551 0.5)
(0 0.00958722 0.5)
(0 0.0126792 0.5)
(0 0.0162442 0.5)
(0 0.0203545 0.5)
(0 0.0250936 0.5)
(0 0.0305577 0.5)
(0 0.0368577 0.5)
(0 0.0441215 0.5)
(0 0.0524965 0.5)
(0 0.0621526 0.5)
(0 0.073286 0.5)
(0 0.0861225 0.5)
(0 0.100923 0.5)
(0 0.117987 0.5)
(0 0.137662 0.5)
(0 0.160347 0.5)
(0 0.186502 0.5)
(0 0.216658 0.5)
(0 0.251427 0.5)
(0 0.291515 0.5)
(0 0.337736 0.5)
(0 0.391028 0.5)
(0 0.452472 0.5)
(0 0.523316 0.5)
(0 0.604998 0.5)
(0 0.699175 0.5)
(0 0.807759 0.5)
(0 0.932955 0.5)
)
;
    }
    OUTLET
    {
        type            sliced;
        value           nonuniform List<vector> 
32
(
(0.5 0.000812661 0.5)
(0.5 0.0025623 0.5)
(0.5 0.0045796 0.5)
(0.5 0.00690551 0.5)
(0.5 0.00958722 0.5)
(0.5 0.0126792 0.5)
(0.5 0.0162442 0.5)
(0.5 0.0203545 0.5)
(0.5 0.0250936 0.5)
(0.5 0.0305577 0.5)
(0.5 0.0368577 0.5)
(0.5 0.0441215 0.5)
(0.5 0.0524965 0.5)
(0.5 0.0621526 0.5)
(0.5 0.073286 0.5)
(0.5 0.0861225 0.5)
(0.5 0.100923 0.5)
(0.5 0.117987 0.5)
(0.5 0.137662 0.5)
(0.5 0.160347 0.5)
(0.5 0.186502 0.5)
(0.5 0.216658 0.5)
(0.5 0.251427 0.5)
(0.5 0.291515 0.5)
(0.5 0.337736 0.5)
(0.5 0.391028 0.5)
(0.5 0.452472 0.5)
(0.5 0.523316 0.5)
(0.5 0.604998 0.5)
(0.5 0.699175 0.5)
(0.5 0.807759 0.5)
(0.5 0.932955 0.5)
)
;
    }
    WALL
    {
        type            sliced;
        value           nonuniform List<vector> 10((0.025 0 0.5) (0.075 0 0.5) (0.125 0 0.5) (0.175 0 0.5) (0.225 0 0.5) (0.275 0 0.5) (0.325 0 0.5) (0.375 0 0.5) (0.425 0 0.5) (0.475 0 0.5));
    }
    CENTER
    {
        type            sliced;
        value           nonuniform List<vector> 10((0.025 1 0.5) (0.075 1 0.5) (0.125 1 0.5) (0.175 1 0.5) (0.225 1 0.5) (0.275 1 0.5) (0.325 1 0.5) (0.375 1 0.5) (0.425 1 0.5) (0.475 1 0.5));
    }
    frontAndBackPlanes
    {
        type            sliced;
        value           nonuniform 0();
    }
}


// ************************************************************************* //
