/*--------------------------------*- C++ -*----------------------------------*\
| =========                 |                                                 |
| \\      /  F ield         | OpenFOAM: The Open Source CFD Toolbox           |
|  \\    /   O peration     | Version:  v1806                                 |
|   \\  /    A nd           | Web:      www.OpenFOAM.com                      |
|    \\/     M anipulation  |                                                 |
\*---------------------------------------------------------------------------*/
FoamFile
{
    version     2.0;
    format      ascii;
    class       volSymmTensorField;
    location    "10000";
    object      turbulenceProperties:R;
}
// * * * * * * * * * * * * * * * * * * * * * * * * * * * * * * * * * * * * * //

dimensions      [0 2 -2 0 0 0 0];


internalField   nonuniform List<symmTensor> 
320
(
(2.56045e-07 -3.02027e-10 -0 2.56045e-07 -0 2.56045e-07)
(2.56045e-07 -3.02027e-10 -0 2.56045e-07 -0 2.56045e-07)
(2.56046e-07 -3.02027e-10 -0 2.56046e-07 -0 2.56046e-07)
(2.56046e-07 -3.02027e-10 -0 2.56046e-07 -0 2.56046e-07)
(2.56046e-07 -3.02027e-10 -0 2.56046e-07 -0 2.56046e-07)
(2.56046e-07 -3.02027e-10 -0 2.56046e-07 -0 2.56046e-07)
(2.56046e-07 -3.02027e-10 -0 2.56046e-07 -0 2.56046e-07)
(2.56046e-07 -3.02027e-10 -0 2.56046e-07 -0 2.56046e-07)
(2.56046e-07 -3.02027e-10 -0 2.56046e-07 -0 2.56046e-07)
(2.56046e-07 -3.02027e-10 -0 2.56046e-07 -0 2.56046e-07)
(3.87654e-06 -1.92076e-08 -0 3.87654e-06 -0 3.87654e-06)
(3.87654e-06 -1.92076e-08 -0 3.87654e-06 -0 3.87654e-06)
(3.87654e-06 -1.92076e-08 -0 3.87654e-06 -0 3.87654e-06)
(3.87655e-06 -1.92076e-08 -0 3.87655e-06 -0 3.87655e-06)
(3.87655e-06 -1.92076e-08 -0 3.87655e-06 -0 3.87655e-06)
(3.87654e-06 -1.92076e-08 -0 3.87654e-06 -0 3.87654e-06)
(3.87655e-06 -1.92076e-08 -0 3.87655e-06 -0 3.87655e-06)
(3.87655e-06 -1.92076e-08 -0 3.87655e-06 -0 3.87655e-06)
(3.87655e-06 -1.92076e-08 -0 3.87655e-06 -0 3.87655e-06)
(3.87654e-06 -1.92076e-08 -0 3.87654e-06 -0 3.87654e-06)
(1.40274e-05 -1.2735e-07 -0 1.40274e-05 -0 1.40274e-05)
(1.40274e-05 -1.2735e-07 -0 1.40274e-05 -0 1.40274e-05)
(1.40274e-05 -1.2735e-07 -0 1.40274e-05 -0 1.40274e-05)
(1.40274e-05 -1.2735e-07 -0 1.40274e-05 -0 1.40274e-05)
(1.40274e-05 -1.2735e-07 -0 1.40274e-05 -0 1.40274e-05)
(1.40274e-05 -1.2735e-07 -0 1.40274e-05 -0 1.40274e-05)
(1.40274e-05 -1.2735e-07 -0 1.40274e-05 -0 1.40274e-05)
(1.40274e-05 -1.2735e-07 -0 1.40274e-05 -0 1.40274e-05)
(1.40274e-05 -1.2735e-07 -0 1.40274e-05 -0 1.40274e-05)
(1.40274e-05 -1.2735e-07 -0 1.40274e-05 -0 1.40274e-05)
(3.50802e-05 -4.7782e-07 -0 3.50802e-05 -0 3.50802e-05)
(3.50802e-05 -4.7782e-07 -0 3.50802e-05 -0 3.50802e-05)
(3.50803e-05 -4.77821e-07 -0 3.50803e-05 -0 3.50803e-05)
(3.50803e-05 -4.77821e-07 -0 3.50803e-05 -0 3.50803e-05)
(3.50803e-05 -4.77821e-07 -0 3.50803e-05 -0 3.50803e-05)
(3.50803e-05 -4.77821e-07 -0 3.50803e-05 -0 3.50803e-05)
(3.50803e-05 -4.77821e-07 -0 3.50803e-05 -0 3.50803e-05)
(3.50803e-05 -4.77821e-07 -0 3.50803e-05 -0 3.50803e-05)
(3.50803e-05 -4.77821e-07 -0 3.50803e-05 -0 3.50803e-05)
(3.50803e-05 -4.77821e-07 -0 3.50803e-05 -0 3.50803e-05)
(7.42323e-05 -1.39052e-06 -0 7.42323e-05 -0 7.42323e-05)
(7.42324e-05 -1.39052e-06 -0 7.42324e-05 -0 7.42324e-05)
(7.42325e-05 -1.39052e-06 -0 7.42325e-05 -0 7.42325e-05)
(7.42325e-05 -1.39053e-06 -0 7.42325e-05 -0 7.42325e-05)
(7.42325e-05 -1.39052e-06 -0 7.42325e-05 -0 7.42325e-05)
(7.42325e-05 -1.39052e-06 -0 7.42325e-05 -0 7.42325e-05)
(7.42325e-05 -1.39052e-06 -0 7.42325e-05 -0 7.42325e-05)
(7.42325e-05 -1.39052e-06 -0 7.42325e-05 -0 7.42325e-05)
(7.42325e-05 -1.39052e-06 -0 7.42325e-05 -0 7.42325e-05)
(7.42325e-05 -1.39052e-06 -0 7.42325e-05 -0 7.42325e-05)
(0.00014339 -3.54669e-06 -0 0.00014339 -0 0.00014339)
(0.00014339 -3.54669e-06 -0 0.00014339 -0 0.00014339)
(0.00014339 -3.5467e-06 -0 0.00014339 -0 0.00014339)
(0.00014339 -3.5467e-06 -0 0.00014339 -0 0.00014339)
(0.00014339 -3.5467e-06 -0 0.00014339 -0 0.00014339)
(0.00014339 -3.5467e-06 -0 0.00014339 -0 0.00014339)
(0.00014339 -3.5467e-06 -0 0.00014339 -0 0.00014339)
(0.00014339 -3.5467e-06 -0 0.00014339 -0 0.00014339)
(0.00014339 -3.5467e-06 -0 0.00014339 -0 0.00014339)
(0.00014339 -3.5467e-06 -0 0.00014339 -0 0.00014339)
(0.00026229 -8.47617e-06 -0 0.00026229 -0 0.00026229)
(0.00026229 -8.47617e-06 -0 0.00026229 -0 0.00026229)
(0.00026229 -8.47617e-06 -0 0.00026229 -0 0.00026229)
(0.00026229 -8.47618e-06 -0 0.00026229 -0 0.00026229)
(0.00026229 -8.47618e-06 -0 0.00026229 -0 0.00026229)
(0.00026229 -8.47618e-06 -0 0.00026229 -0 0.00026229)
(0.00026229 -8.47618e-06 -0 0.00026229 -0 0.00026229)
(0.00026229 -8.47619e-06 -0 0.00026229 -0 0.00026229)
(0.00026229 -8.47619e-06 -0 0.00026229 -0 0.00026229)
(0.00026229 -8.47618e-06 -0 0.00026229 -0 0.00026229)
(0.000463433 -1.98259e-05 -0 0.000463433 -0 0.000463433)
(0.000463433 -1.98258e-05 -0 0.000463433 -0 0.000463433)
(0.000463433 -1.98259e-05 -0 0.000463433 -0 0.000463433)
(0.000463433 -1.98259e-05 -0 0.000463433 -0 0.000463433)
(0.000463433 -1.98259e-05 -0 0.000463433 -0 0.000463433)
(0.000463433 -1.98259e-05 -0 0.000463433 -0 0.000463433)
(0.000463433 -1.98259e-05 -0 0.000463433 -0 0.000463433)
(0.000463433 -1.98259e-05 -0 0.000463433 -0 0.000463433)
(0.000463433 -1.98259e-05 -0 0.000463433 -0 0.000463433)
(0.000463433 -1.98259e-05 -0 0.000463433 -0 0.000463433)
(0.000799023 -4.67326e-05 -0 0.000799023 -0 0.000799023)
(0.000799023 -4.67325e-05 -0 0.000799023 -0 0.000799023)
(0.000799023 -4.67325e-05 -0 0.000799023 -0 0.000799023)
(0.000799023 -4.67325e-05 -0 0.000799023 -0 0.000799023)
(0.000799023 -4.67326e-05 -0 0.000799023 -0 0.000799023)
(0.000799023 -4.67326e-05 -0 0.000799023 -0 0.000799023)
(0.000799023 -4.67326e-05 -0 0.000799023 -0 0.000799023)
(0.000799023 -4.67326e-05 -0 0.000799023 -0 0.000799023)
(0.000799023 -4.67326e-05 -0 0.000799023 -0 0.000799023)
(0.000799023 -4.67326e-05 -0 0.000799023 -0 0.000799023)
(0.00134664 -0.000114081 -0 0.00134664 -0 0.00134664)
(0.00134664 -0.000114081 -0 0.00134664 -0 0.00134664)
(0.00134664 -0.000114081 -0 0.00134664 -0 0.00134664)
(0.00134663 -0.000114081 -0 0.00134663 -0 0.00134663)
(0.00134663 -0.000114081 -0 0.00134663 -0 0.00134663)
(0.00134663 -0.000114081 -0 0.00134663 -0 0.00134663)
(0.00134663 -0.000114081 -0 0.00134663 -0 0.00134663)
(0.00134663 -0.000114081 -0 0.00134663 -0 0.00134663)
(0.00134663 -0.000114081 -0 0.00134663 -0 0.00134663)
(0.00134663 -0.000114081 -0 0.00134663 -0 0.00134663)
(0.00219155 -0.000280938 -0 0.00219155 -0 0.00219155)
(0.00219155 -0.000280938 -0 0.00219155 -0 0.00219155)
(0.00219155 -0.000280938 -0 0.00219155 -0 0.00219155)
(0.00219155 -0.000280938 -0 0.00219155 -0 0.00219155)
(0.00219155 -0.000280938 -0 0.00219155 -0 0.00219155)
(0.00219154 -0.000280938 -0 0.00219154 -0 0.00219154)
(0.00219154 -0.000280938 -0 0.00219154 -0 0.00219154)
(0.00219154 -0.000280938 -0 0.00219154 -0 0.00219154)
(0.00219154 -0.000280938 -0 0.00219154 -0 0.00219154)
(0.00219154 -0.000280938 -0 0.00219154 -0 0.00219154)
(0.00333424 -0.0006213 -0 0.00333424 -0 0.00333424)
(0.00333424 -0.000621301 -0 0.00333424 -0 0.00333424)
(0.00333424 -0.000621301 -0 0.00333424 -0 0.00333424)
(0.00333424 -0.0006213 -0 0.00333424 -0 0.00333424)
(0.00333424 -0.0006213 -0 0.00333424 -0 0.00333424)
(0.00333424 -0.000621299 -0 0.00333424 -0 0.00333424)
(0.00333424 -0.000621298 -0 0.00333424 -0 0.00333424)
(0.00333424 -0.000621298 -0 0.00333424 -0 0.00333424)
(0.00333424 -0.000621298 -0 0.00333424 -0 0.00333424)
(0.00333424 -0.000621298 -0 0.00333424 -0 0.00333424)
(0.00457617 -0.0010996 -0 0.00457617 -0 0.00457617)
(0.00457617 -0.0010996 -0 0.00457617 -0 0.00457617)
(0.00457617 -0.0010996 -0 0.00457617 -0 0.00457617)
(0.00457617 -0.0010996 -0 0.00457617 -0 0.00457617)
(0.00457617 -0.0010996 -0 0.00457617 -0 0.00457617)
(0.00457617 -0.0010996 -0 0.00457617 -0 0.00457617)
(0.00457617 -0.0010996 -0 0.00457617 -0 0.00457617)
(0.00457616 -0.0010996 -0 0.00457616 -0 0.00457616)
(0.00457616 -0.00109959 -0 0.00457616 -0 0.00457616)
(0.00457616 -0.0010996 -0 0.00457616 -0 0.00457616)
(0.00564492 -0.0015746 -0 0.00564492 -0 0.00564492)
(0.00564492 -0.0015746 -0 0.00564492 -0 0.00564492)
(0.00564492 -0.0015746 -0 0.00564492 -0 0.00564492)
(0.00564492 -0.0015746 -0 0.00564492 -0 0.00564492)
(0.00564492 -0.0015746 -0 0.00564492 -0 0.00564492)
(0.00564492 -0.0015746 -0 0.00564492 -0 0.00564492)
(0.00564491 -0.0015746 -0 0.00564491 -0 0.00564491)
(0.00564491 -0.0015746 -0 0.00564491 -0 0.00564491)
(0.00564491 -0.0015746 -0 0.00564491 -0 0.00564491)
(0.0056449 -0.00157459 -0 0.0056449 -0 0.0056449)
(0.00641148 -0.00196381 -0 0.00641148 -0 0.00641148)
(0.00641148 -0.00196381 -0 0.00641148 -0 0.00641148)
(0.00641148 -0.0019638 -0 0.00641148 -0 0.00641148)
(0.00641148 -0.0019638 -0 0.00641148 -0 0.00641148)
(0.00641148 -0.00196381 -0 0.00641148 -0 0.00641148)
(0.00641148 -0.00196381 -0 0.00641148 -0 0.00641148)
(0.00641147 -0.0019638 -0 0.00641147 -0 0.00641147)
(0.00641147 -0.0019638 -0 0.00641147 -0 0.00641147)
(0.00641147 -0.0019638 -0 0.00641147 -0 0.00641147)
(0.00641147 -0.0019638 -0 0.00641147 -0 0.00641147)
(0.00688537 -0.00225361 -0 0.00688537 -0 0.00688537)
(0.00688537 -0.00225361 -0 0.00688537 -0 0.00688537)
(0.00688536 -0.00225361 -0 0.00688536 -0 0.00688536)
(0.00688536 -0.0022536 -0 0.00688536 -0 0.00688536)
(0.00688536 -0.00225361 -0 0.00688536 -0 0.00688536)
(0.00688537 -0.00225361 -0 0.00688537 -0 0.00688537)
(0.00688536 -0.0022536 -0 0.00688536 -0 0.00688536)
(0.00688535 -0.0022536 -0 0.00688535 -0 0.00688535)
(0.00688536 -0.00225361 -0 0.00688536 -0 0.00688536)
(0.00688535 -0.0022536 -0 0.00688535 -0 0.00688535)
(0.00712788 -0.00245502 -0 0.00712788 -0 0.00712788)
(0.00712788 -0.00245501 -0 0.00712788 -0 0.00712788)
(0.00712788 -0.00245502 -0 0.00712788 -0 0.00712788)
(0.00712787 -0.00245501 -0 0.00712787 -0 0.00712787)
(0.00712787 -0.00245502 -0 0.00712787 -0 0.00712787)
(0.00712788 -0.00245502 -0 0.00712788 -0 0.00712788)
(0.00712787 -0.00245501 -0 0.00712787 -0 0.00712787)
(0.00712787 -0.00245501 -0 0.00712787 -0 0.00712787)
(0.00712787 -0.00245501 -0 0.00712787 -0 0.00712787)
(0.00712786 -0.00245501 -0 0.00712786 -0 0.00712786)
(0.00720209 -0.00258414 -0 0.00720209 -0 0.00720209)
(0.00720209 -0.00258414 -0 0.00720209 -0 0.00720209)
(0.00720209 -0.00258414 -0 0.00720209 -0 0.00720209)
(0.00720209 -0.00258414 -0 0.00720209 -0 0.00720209)
(0.00720209 -0.00258414 -0 0.00720209 -0 0.00720209)
(0.00720209 -0.00258415 -0 0.00720209 -0 0.00720209)
(0.00720209 -0.00258414 -0 0.00720209 -0 0.00720209)
(0.00720209 -0.00258414 -0 0.00720209 -0 0.00720209)
(0.00720209 -0.00258414 -0 0.00720209 -0 0.00720209)
(0.00720208 -0.00258414 -0 0.00720208 -0 0.00720208)
(0.00715685 -0.00265559 -0 0.00715685 -0 0.00715685)
(0.00715685 -0.00265559 -0 0.00715685 -0 0.00715685)
(0.00715685 -0.00265559 -0 0.00715685 -0 0.00715685)
(0.00715685 -0.00265559 -0 0.00715685 -0 0.00715685)
(0.00715684 -0.00265559 -0 0.00715684 -0 0.00715684)
(0.00715685 -0.00265559 -0 0.00715685 -0 0.00715685)
(0.00715684 -0.00265559 -0 0.00715684 -0 0.00715684)
(0.00715684 -0.00265559 -0 0.00715684 -0 0.00715684)
(0.00715684 -0.00265559 -0 0.00715684 -0 0.00715684)
(0.00715684 -0.00265559 -0 0.00715684 -0 0.00715684)
(0.00702559 -0.00268064 -0 0.00702559 -0 0.00702559)
(0.00702559 -0.00268065 -0 0.00702559 -0 0.00702559)
(0.00702559 -0.00268064 -0 0.00702559 -0 0.00702559)
(0.00702559 -0.00268065 -0 0.00702559 -0 0.00702559)
(0.00702558 -0.00268064 -0 0.00702558 -0 0.00702558)
(0.00702558 -0.00268065 -0 0.00702558 -0 0.00702558)
(0.00702559 -0.00268065 -0 0.00702559 -0 0.00702559)
(0.00702558 -0.00268064 -0 0.00702558 -0 0.00702558)
(0.00702558 -0.00268064 -0 0.00702558 -0 0.00702558)
(0.00702558 -0.00268064 -0 0.00702558 -0 0.00702558)
(0.00682952 -0.00266718 -0 0.00682952 -0 0.00682952)
(0.00682951 -0.00266718 -0 0.00682951 -0 0.00682951)
(0.00682951 -0.00266718 -0 0.00682951 -0 0.00682951)
(0.00682951 -0.00266718 -0 0.00682951 -0 0.00682951)
(0.00682951 -0.00266718 -0 0.00682951 -0 0.00682951)
(0.00682951 -0.00266719 -0 0.00682951 -0 0.00682951)
(0.00682951 -0.00266718 -0 0.00682951 -0 0.00682951)
(0.00682951 -0.00266719 -0 0.00682951 -0 0.00682951)
(0.00682951 -0.00266718 -0 0.00682951 -0 0.00682951)
(0.00682951 -0.00266718 -0 0.00682951 -0 0.00682951)
(0.00658106 -0.00262016 -0 0.00658106 -0 0.00658106)
(0.00658106 -0.00262016 -0 0.00658106 -0 0.00658106)
(0.00658106 -0.00262016 -0 0.00658106 -0 0.00658106)
(0.00658106 -0.00262016 -0 0.00658106 -0 0.00658106)
(0.00658106 -0.00262016 -0 0.00658106 -0 0.00658106)
(0.00658106 -0.00262015 -0 0.00658106 -0 0.00658106)
(0.00658105 -0.00262015 -0 0.00658105 -0 0.00658105)
(0.00658105 -0.00262016 -0 0.00658105 -0 0.00658105)
(0.00658106 -0.00262015 -0 0.00658106 -0 0.00658106)
(0.00658105 -0.00262016 -0 0.00658105 -0 0.00658105)
(0.00628665 -0.00254222 -0 0.00628665 -0 0.00628665)
(0.00628665 -0.00254221 -0 0.00628665 -0 0.00628665)
(0.00628665 -0.00254222 -0 0.00628665 -0 0.00628665)
(0.00628665 -0.00254221 -0 0.00628665 -0 0.00628665)
(0.00628665 -0.00254222 -0 0.00628665 -0 0.00628665)
(0.00628665 -0.00254221 -0 0.00628665 -0 0.00628665)
(0.00628664 -0.00254221 -0 0.00628664 -0 0.00628664)
(0.00628665 -0.00254222 -0 0.00628665 -0 0.00628664)
(0.00628665 -0.00254222 -0 0.00628665 -0 0.00628665)
(0.00628664 -0.00254221 -0 0.00628664 -0 0.00628664)
(0.00594861 -0.00243421 -0 0.00594861 -0 0.00594861)
(0.00594861 -0.0024342 -0 0.00594861 -0 0.00594861)
(0.00594861 -0.0024342 -0 0.00594861 -0 0.00594861)
(0.00594861 -0.00243421 -0 0.00594861 -0 0.00594861)
(0.00594861 -0.0024342 -0 0.00594861 -0 0.00594861)
(0.00594861 -0.0024342 -0 0.00594861 -0 0.00594861)
(0.00594861 -0.0024342 -0 0.00594861 -0 0.00594861)
(0.00594861 -0.0024342 -0 0.00594861 -0 0.00594861)
(0.00594861 -0.0024342 -0 0.00594861 -0 0.00594861)
(0.00594861 -0.0024342 -0 0.00594861 -0 0.00594861)
(0.00556658 -0.00229557 -0 0.00556658 -0 0.00556658)
(0.00556658 -0.00229557 -0 0.00556658 -0 0.00556658)
(0.00556658 -0.00229557 -0 0.00556658 -0 0.00556658)
(0.00556658 -0.00229557 -0 0.00556658 -0 0.00556658)
(0.00556658 -0.00229557 -0 0.00556658 -0 0.00556658)
(0.00556658 -0.00229557 -0 0.00556658 -0 0.00556658)
(0.00556658 -0.00229557 -0 0.00556658 -0 0.00556658)
(0.00556658 -0.00229557 -0 0.00556658 -0 0.00556658)
(0.00556658 -0.00229557 -0 0.00556658 -0 0.00556658)
(0.00556657 -0.00229557 -0 0.00556657 -0 0.00556657)
(0.00513861 -0.00212459 -0 0.00513861 -0 0.00513861)
(0.00513861 -0.00212459 -0 0.00513861 -0 0.00513861)
(0.00513861 -0.00212459 -0 0.00513861 -0 0.00513861)
(0.00513861 -0.00212459 -0 0.00513861 -0 0.00513861)
(0.00513861 -0.00212459 -0 0.00513861 -0 0.00513861)
(0.00513861 -0.00212459 -0 0.00513861 -0 0.00513861)
(0.00513861 -0.00212459 -0 0.00513861 -0 0.00513861)
(0.00513861 -0.00212459 -0 0.00513861 -0 0.00513861)
(0.00513861 -0.00212459 -0 0.00513861 -0 0.00513861)
(0.00513861 -0.00212459 -0 0.00513861 -0 0.00513861)
(0.00466253 -0.00191849 -0 0.00466253 -0 0.00466253)
(0.00466253 -0.00191849 -0 0.00466253 -0 0.00466253)
(0.00466253 -0.00191849 -0 0.00466253 -0 0.00466253)
(0.00466253 -0.00191849 -0 0.00466253 -0 0.00466253)
(0.00466252 -0.00191849 -0 0.00466252 -0 0.00466252)
(0.00466252 -0.00191849 -0 0.00466252 -0 0.00466252)
(0.00466252 -0.00191849 -0 0.00466252 -0 0.00466252)
(0.00466252 -0.00191849 -0 0.00466252 -0 0.00466252)
(0.00466252 -0.00191849 -0 0.00466252 -0 0.00466252)
(0.00466252 -0.00191849 -0 0.00466252 -0 0.00466252)
(0.00413821 -0.00167356 -0 0.00413821 -0 0.00413821)
(0.00413821 -0.00167356 -0 0.00413821 -0 0.00413821)
(0.00413821 -0.00167356 -0 0.00413821 -0 0.00413821)
(0.00413821 -0.00167356 -0 0.00413821 -0 0.00413821)
(0.00413821 -0.00167356 -0 0.00413821 -0 0.00413821)
(0.00413821 -0.00167356 -0 0.00413821 -0 0.00413821)
(0.00413821 -0.00167356 -0 0.00413821 -0 0.00413821)
(0.00413821 -0.00167356 -0 0.00413821 -0 0.00413821)
(0.00413821 -0.00167356 -0 0.00413821 -0 0.00413821)
(0.00413821 -0.00167356 -0 0.00413821 -0 0.00413821)
(0.00357266 -0.00138533 -0 0.00357266 -0 0.00357266)
(0.00357266 -0.00138533 -0 0.00357266 -0 0.00357266)
(0.00357266 -0.00138533 -0 0.00357266 -0 0.00357266)
(0.00357266 -0.00138533 -0 0.00357266 -0 0.00357266)
(0.00357266 -0.00138533 -0 0.00357266 -0 0.00357266)
(0.00357266 -0.00138533 -0 0.00357266 -0 0.00357266)
(0.00357266 -0.00138533 -0 0.00357266 -0 0.00357266)
(0.00357266 -0.00138533 -0 0.00357266 -0 0.00357266)
(0.00357266 -0.00138533 -0 0.00357266 -0 0.00357266)
(0.00357266 -0.00138533 -0 0.00357266 -0 0.00357266)
(0.00299137 -0.0010501 -0 0.00299137 -0 0.00299137)
(0.00299137 -0.0010501 -0 0.00299137 -0 0.00299137)
(0.00299137 -0.0010501 -0 0.00299137 -0 0.00299137)
(0.00299137 -0.0010501 -0 0.00299137 -0 0.00299137)
(0.00299137 -0.0010501 -0 0.00299137 -0 0.00299137)
(0.00299137 -0.0010501 -0 0.00299137 -0 0.00299137)
(0.00299137 -0.0010501 -0 0.00299137 -0 0.00299137)
(0.00299137 -0.0010501 -0 0.00299137 -0 0.00299137)
(0.00299137 -0.0010501 -0 0.00299137 -0 0.00299137)
(0.00299137 -0.0010501 -0 0.00299137 -0 0.00299137)
(0.00246011 -0.000668179 -0 0.00246011 -0 0.00246011)
(0.00246011 -0.000668179 -0 0.00246011 -0 0.00246011)
(0.00246012 -0.00066818 -0 0.00246012 -0 0.00246012)
(0.00246012 -0.00066818 -0 0.00246012 -0 0.00246012)
(0.00246012 -0.00066818 -0 0.00246012 -0 0.00246012)
(0.00246012 -0.000668179 -0 0.00246012 -0 0.00246012)
(0.00246011 -0.000668178 -0 0.00246011 -0 0.00246011)
(0.00246012 -0.000668179 -0 0.00246012 -0 0.00246012)
(0.00246012 -0.000668179 -0 0.00246012 -0 0.00246012)
(0.00246012 -0.000668179 -0 0.00246012 -0 0.00246012)
(0.00210581 -0.000234298 -0 0.00210581 -0 0.00210581)
(0.00210581 -0.000234298 -0 0.00210581 -0 0.00210581)
(0.00210581 -0.000234297 -0 0.00210581 -0 0.00210581)
(0.00210581 -0.000234298 -0 0.00210581 -0 0.00210581)
(0.00210581 -0.000234298 -0 0.00210581 -0 0.00210581)
(0.00210581 -0.000234298 -0 0.00210581 -0 0.00210581)
(0.00210581 -0.000234298 -0 0.00210581 -0 0.00210581)
(0.00210581 -0.000234298 -0 0.00210581 -0 0.00210581)
(0.00210581 -0.000234298 -0 0.00210581 -0 0.00210581)
(0.00210581 -0.000234298 -0 0.00210581 -0 0.00210581)
)
;

boundaryField
{
    INLET
    {
        type            cyclic;
    }
    OUTLET
    {
        type            cyclic;
    }
    WALL
    {
        type            fixedValue;
        value           uniform (6.66667e-11 -0 -0 6.66667e-11 -0 6.66667e-11);
    }
    CENTER
    {
        type            symmetryPlane;
    }
    frontAndBackPlanes
    {
        type            empty;
    }
}


// ************************************************************************* //
