/*--------------------------------*- C++ -*----------------------------------*\
| =========                 |                                                 |
| \\      /  F ield         | OpenFOAM: The Open Source CFD Toolbox           |
|  \\    /   O peration     | Version:  v1806                                 |
|   \\  /    A nd           | Web:      www.OpenFOAM.com                      |
|    \\/     M anipulation  |                                                 |
\*---------------------------------------------------------------------------*/
FoamFile
{
    version     2.0;
    format      ascii;
    class       volVectorField;
    location    "10000";
    object      U;
}
// * * * * * * * * * * * * * * * * * * * * * * * * * * * * * * * * * * * * * //

dimensions      [0 1 -1 0 0 0 0];


internalField   nonuniform List<vector> 
320
(
(0.00872252 4.85055e-12 0)
(0.00872252 2.39217e-12 0)
(0.00872252 5.07904e-13 0)
(0.00872252 9.95633e-13 0)
(0.00872252 2.63997e-12 0)
(0.00872252 6.64424e-14 0)
(0.00872252 -4.26659e-12 0)
(0.00872252 -3.16146e-12 0)
(0.00872252 -3.73169e-12 0)
(0.00872252 -2.92782e-13 0)
(0.0274713 5.23617e-11 0)
(0.0274713 3.59972e-11 0)
(0.0274713 9.11172e-12 0)
(0.0274713 1.40412e-11 0)
(0.0274713 3.05694e-11 0)
(0.0274713 8.64874e-13 0)
(0.0274713 -4.64158e-11 0)
(0.0274713 -4.78221e-11 0)
(0.0274713 -4.56267e-11 0)
(0.0274713 -3.08123e-12 0)
(0.0490474 1.58036e-10 0)
(0.0490474 1.14855e-10 0)
(0.0490474 3.08847e-11 0)
(0.0490474 4.40092e-11 0)
(0.0490474 9.38576e-11 0)
(0.0490474 4.39792e-12 0)
(0.0490474 -1.40328e-10 0)
(0.0490474 -1.52293e-10 0)
(0.0490474 -1.4245e-10 0)
(0.0490474 -1.09692e-11 0)
(0.0738688 3.37099e-10 0)
(0.0738688 2.54377e-10 0)
(0.0738688 7.19756e-11 0)
(0.0738688 9.60873e-11 0)
(0.0738688 2.03068e-10 0)
(0.0738688 1.36575e-11 0)
(0.0738688 -2.99667e-10 0)
(0.0738688 -3.3676e-10 0)
(0.0738688 -3.12475e-10 0)
(0.0738688 -2.73615e-11 0)
(0.102411 5.99184e-10 0)
(0.102411 4.66118e-10 0)
(0.102411 1.38645e-10 0)
(0.102411 1.73762e-10 0)
(0.102411 3.66209e-10 0)
(0.102411 3.34609e-11 0)
(0.102411 -5.33086e-10 0)
(0.102411 -6.16569e-10 0)
(0.102411 -5.70952e-10 0)
(0.102411 -5.67714e-11 0)
(0.135211 9.50133e-10 0)
(0.135211 7.57844e-10 0)
(0.135211 2.36601e-10 0)
(0.135211 2.79069e-10 0)
(0.135211 5.89594e-10 0)
(0.135211 6.97722e-11 0)
(0.135211 -8.45915e-10 0)
(0.135211 -1.00321e-09 0)
(0.135211 -9.30412e-10 0)
(0.135211 -1.03471e-10 0)
(0.172867 1.38784e-09 0)
(0.172867 1.1275e-09 0)
(0.172867 3.68639e-10 0)
(0.172867 4.1133e-10 0)
(0.172867 8.75323e-10 0)
(0.172867 1.27892e-10 0)
(0.172867 -1.23853e-09 0)
(0.172867 -1.49862e-09 0)
(0.172867 -1.39327e-09 0)
(0.172867 -1.6811e-10 0)
(0.216021 1.89078e-09 0)
(0.216021 1.5515e-09 0)
(0.216021 5.32634e-10 0)
(0.216021 5.69686e-10 0)
(0.216021 1.22261e-09 0)
(0.216021 2.12734e-10 0)
(0.216021 -1.70449e-09 0)
(0.216021 -2.08864e-09 0)
(0.216021 -1.94153e-09 0)
(0.216021 -2.45277e-10 0)
(0.265301 2.37778e-09 0)
(0.265301 1.95762e-09 0)
(0.265301 7.15307e-10 0)
(0.265301 7.63789e-10 0)
(0.265301 1.6421e-09 0)
(0.265301 3.46708e-10 0)
(0.265301 -2.20949e-09 0)
(0.265301 -2.7272e-09 0)
(0.265301 -2.5257e-09 0)
(0.265301 -3.40914e-10 0)
(0.321097 2.62269e-09 0)
(0.321097 2.15174e-09 0)
(0.321097 8.36095e-10 0)
(0.321097 1.00512e-09 0)
(0.321097 2.16639e-09 0)
(0.321097 5.95731e-10 0)
(0.321097 -2.59823e-09 0)
(0.321097 -3.24835e-09 0)
(0.321097 -3.02694e-09 0)
(0.321097 -5.04255e-10 0)
(0.382925 2.31197e-09 0)
(0.382925 1.77003e-09 0)
(0.382925 5.43364e-10 0)
(0.382925 1.08149e-09 0)
(0.382925 2.66365e-09 0)
(0.382925 9.88918e-10 0)
(0.382925 -2.49577e-09 0)
(0.382925 -3.02916e-09 0)
(0.382925 -3.02321e-09 0)
(0.382925 -8.11279e-10 0)
(0.448319 2.03718e-09 0)
(0.448319 1.25175e-09 0)
(0.448319 -9.24599e-10 0)
(0.44832 -1.04424e-10 0)
(0.44832 2.85799e-09 0)
(0.44832 8.21098e-10 0)
(0.44832 -2.41987e-09 0)
(0.44832 -1.43517e-09 0)
(0.448319 -1.55071e-09 0)
(0.448319 -5.33253e-10 0)
(0.513053 2.34986e-09 0)
(0.513053 8.5194e-10 0)
(0.513053 -1.19918e-09 0)
(0.513053 -1.95604e-09 0)
(0.513053 1.21134e-09 0)
(0.513053 6.50532e-10 0)
(0.513053 -3.12661e-09 0)
(0.513053 -1.19953e-09 0)
(0.513053 7.64596e-10 0)
(0.513053 1.6531e-09 0)
(0.573685 3.03007e-09 0)
(0.573685 1.21535e-09 0)
(0.573685 -1.29733e-09 0)
(0.573685 -2.58255e-09 0)
(0.573685 -9.67116e-10 0)
(0.573685 -4.39758e-10 0)
(0.573685 -1.5553e-09 0)
(0.573685 1.40576e-10 0)
(0.573685 7.89682e-10 0)
(0.573685 1.66638e-09 0)
(0.628939 2.2132e-09 0)
(0.628939 -5.05834e-11 0)
(0.628939 -2.77291e-10 0)
(0.628939 -1.03428e-09 0)
(0.628939 -9.73008e-10 0)
(0.628939 -1.95708e-09 0)
(0.628939 -1.83893e-09 0)
(0.628939 7.44955e-10 0)
(0.628939 8.76029e-10 0)
(0.628939 2.29699e-09 0)
(0.678926 1.72408e-09 0)
(0.678926 1.29646e-10 0)
(0.678926 -2.95713e-10 0)
(0.678926 2.75092e-10 0)
(0.678926 -1.21659e-10 0)
(0.678926 -1.35827e-09 0)
(0.678926 -1.51483e-09 0)
(0.678926 9.18579e-10 0)
(0.678926 2.08117e-10 0)
(0.678926 3.49573e-11 0)
(0.724307 1.48655e-09 0)
(0.724307 -3.69521e-10 0)
(0.724307 6.34708e-11 0)
(0.724307 4.76714e-10 0)
(0.724307 1.48648e-09 0)
(0.724307 -4.776e-10 0)
(0.724307 -2.11936e-09 0)
(0.724307 -3.13229e-10 0)
(0.724307 -9.1714e-10 0)
(0.724307 6.83636e-10 0)
(0.765886 1.85702e-09 0)
(0.765886 1.29822e-09 0)
(0.765886 1.35321e-09 0)
(0.765886 6.67623e-10 0)
(0.765886 8.29995e-10 0)
(0.765886 -5.35412e-12 0)
(0.765886 -1.98394e-09 0)
(0.765886 -1.88861e-09 0)
(0.765886 -2.05629e-09 0)
(0.765886 -7.18777e-11 0)
(0.80443 1.93092e-09 0)
(0.80443 1.07433e-09 0)
(0.80443 -1.66461e-10 0)
(0.80443 -5.39307e-10 0)
(0.80443 1.82389e-09 0)
(0.80443 3.90558e-10 0)
(0.80443 -2.88317e-09 0)
(0.80443 -3.47714e-10 0)
(0.80443 -7.05167e-10 0)
(0.80443 -5.77862e-10 0)
(0.840606 1.62904e-09 0)
(0.840606 6.21225e-10 0)
(0.840606 6.83489e-10 0)
(0.840606 7.29588e-10 0)
(0.840606 7.25281e-10 0)
(0.840606 8.01491e-10 0)
(0.840606 -2.41655e-09 0)
(0.840606 -2.04908e-09 0)
(0.840606 -6.21265e-10 0)
(0.840606 -1.03222e-10 0)
(0.874967 1.85476e-10 0)
(0.874967 -2.24358e-10 0)
(0.874967 -2.61231e-10 0)
(0.874967 -5.15235e-11 0)
(0.874967 2.2501e-09 0)
(0.874967 8.90036e-10 0)
(0.874967 -1.02251e-09 0)
(0.874967 -1.02523e-10 0)
(0.874967 -1.15184e-09 0)
(0.874967 -5.11632e-10 0)
(0.907953 9.87168e-10 0)
(0.907953 -6.45981e-10 0)
(0.907953 -1.8927e-10 0)
(0.907953 1.8922e-09 0)
(0.907953 6.86703e-10 0)
(0.907953 -1.03561e-09 0)
(0.907953 -9.3889e-10 0)
(0.907953 -5.48775e-10 0)
(0.907953 -5.45712e-10 0)
(0.907953 3.38163e-10 0)
(0.939908 -9.73111e-10 0)
(0.939908 -4.60758e-10 0)
(0.939908 -5.74962e-10 0)
(0.939908 -2.89087e-10 0)
(0.939908 1.01816e-09 0)
(0.939908 2.93246e-10 0)
(0.939908 7.81834e-10 0)
(0.939908 1.57712e-09 0)
(0.939908 -2.51919e-10 0)
(0.939908 -1.12052e-09 0)
(0.971088 1.06125e-09 0)
(0.971088 -2.20808e-10 0)
(0.971088 9.45233e-10 0)
(0.971088 1.81957e-09 0)
(0.971088 1.01096e-09 0)
(0.971088 -4.14276e-10 0)
(0.971088 -1.89194e-09 0)
(0.971088 -1.97372e-09 0)
(0.971088 -1.12551e-09 0)
(0.971088 7.89231e-10 0)
(1.00167 -6.91746e-10 0)
(1.00167 -7.51859e-10 0)
(1.00167 -5.94539e-11 0)
(1.00167 9.25178e-10 0)
(1.00167 9.19699e-10 0)
(1.00167 4.80929e-10 0)
(1.00167 4.95884e-10 0)
(1.00167 -1.1325e-10 0)
(1.00167 -6.64387e-10 0)
(1.00167 -5.41004e-10 0)
(1.03174 7.35802e-10 0)
(1.03174 2.97503e-10 0)
(1.03174 5.74066e-10 0)
(1.03174 6.08032e-10 0)
(1.03174 1.74672e-10 0)
(1.03174 -1.13806e-11 0)
(1.03174 -5.34655e-10 0)
(1.03174 -1.22368e-09 0)
(1.03174 -9.49884e-10 0)
(1.03174 3.29525e-10 0)
(1.06127 -4.48945e-11 0)
(1.06127 -3.70769e-10 0)
(1.06127 -4.23614e-10 0)
(1.06127 -1.99883e-10 0)
(1.06127 1.90192e-10 0)
(1.06127 2.07021e-10 0)
(1.06127 3.78881e-10 0)
(1.06127 2.97456e-10 0)
(1.06127 -1.0056e-10 0)
(1.06127 6.61808e-11 0)
(1.09007 -1.14656e-10 0)
(1.09007 -8.35941e-11 0)
(1.09007 8.97199e-11 0)
(1.09007 2.78352e-10 0)
(1.09007 3.09359e-10 0)
(1.09007 1.12091e-10 0)
(1.09007 -8.30457e-11 0)
(1.09007 -1.08947e-10 0)
(1.09007 -2.01385e-10 0)
(1.09007 -1.97912e-10 0)
(1.11765 -1.47924e-10 0)
(1.11765 -3.4925e-11 0)
(1.11765 1.63644e-10 0)
(1.11765 2.29215e-10 0)
(1.11765 1.99134e-10 0)
(1.11765 3.93127e-11 0)
(1.11765 -3.91309e-11 0)
(1.11765 -4.04612e-11 0)
(1.11765 -1.75719e-10 0)
(1.11765 -1.93134e-10 0)
(1.14293 -5.00069e-12 0)
(1.14293 -3.25465e-11 0)
(1.14293 2.37013e-11 0)
(1.14293 4.53617e-11 0)
(1.14293 3.98378e-11 0)
(1.14293 -1.44015e-10 0)
(1.14293 -8.63206e-11 0)
(1.14293 7.96994e-11 0)
(1.14293 2.77868e-11 0)
(1.14293 5.15048e-11 0)
(1.16381 -1.19908e-10 0)
(1.16381 1.30828e-10 0)
(1.16381 4.55067e-10 0)
(1.16381 5.01515e-10 0)
(1.16381 2.24351e-10 0)
(1.16381 -3.7476e-10 0)
(1.16381 -4.06041e-10 0)
(1.16381 -1.09472e-10 0)
(1.16381 -1.53475e-10 0)
(1.16381 -1.4812e-10 0)
(1.17673 -8.59518e-11 0)
(1.17673 -1.98479e-10 0)
(1.17673 -2.60606e-10 0)
(1.17673 -6.96409e-11 0)
(1.17673 1.15704e-10 0)
(1.17673 2.34956e-10 0)
(1.17673 1.78999e-10 0)
(1.17673 6.13099e-11 0)
(1.17673 5.18563e-11 0)
(1.17673 -2.81427e-11 0)
)
;

boundaryField
{
    INLET
    {
        type            cyclic;
    }
    OUTLET
    {
        type            cyclic;
    }
    WALL
    {
        type            noSlip;
    }
    CENTER
    {
        type            symmetryPlane;
    }
    frontAndBackPlanes
    {
        type            empty;
    }
}


// ************************************************************************* //
