/*--------------------------------*- C++ -*----------------------------------*\
| =========                 |                                                 |
| \\      /  F ield         | OpenFOAM: The Open Source CFD Toolbox           |
|  \\    /   O peration     | Version:  v1806                                 |
|   \\  /    A nd           | Web:      www.OpenFOAM.com                      |
|    \\/     M anipulation  |                                                 |
\*---------------------------------------------------------------------------*/
FoamFile
{
    version     2.0;
    format      ascii;
    class       volVectorField;
    location    "10000";
    object      divRS_DNS;
}
// * * * * * * * * * * * * * * * * * * * * * * * * * * * * * * * * * * * * * //

dimensions      [0 1 -2 0 0 0 0];


internalField   nonuniform List<vector> 
1025
(
(-6.23102e-08 -1.73025e-06 4.38311e-11)
(-6.03833e-07 2.41047e-09 4.2492e-10)
(-1.14579e-06 4.75325e-09 8.06315e-10)
(-1.14622e-06 4.75513e-09 8.06619e-10)
(-1.15324e-06 4.83234e-09 8.11564e-10)
(-4.44328e-06 4.10118e-08 3.12589e-09)
(-7.72631e-06 7.7114e-08 5.43526e-09)
(-7.72633e-06 7.71141e-08 5.43526e-09)
(-7.72626e-06 7.71145e-08 5.43527e-09)
(-7.72629e-06 7.71137e-08 5.43529e-09)
(-7.72631e-06 7.71133e-08 5.43527e-09)
(-7.72624e-06 7.71145e-08 5.43522e-09)
(-1.58265e-05 2.5646e-07 1.11048e-08)
(-2.81549e-05 5.29419e-07 1.97337e-08)
(-3.2383e-05 6.23033e-07 2.26929e-08)
(-3.2383e-05 6.23036e-07 2.26929e-08)
(-3.2383e-05 6.23038e-07 2.2693e-08)
(-3.23832e-05 6.23026e-07 2.2693e-08)
(-3.23829e-05 6.23028e-07 2.2693e-08)
(-3.23824e-05 6.23042e-07 2.26931e-08)
(-3.23833e-05 6.23034e-07 2.2693e-08)
(-3.23832e-05 6.2303e-07 2.26927e-08)
(-3.23834e-05 6.23032e-07 2.2693e-08)
(-4.50231e-05 1.10383e-06 3.13851e-08)
(-8.0131e-05 2.43938e-06 5.55258e-08)
(-0.0001026 3.29411e-06 7.09767e-08)
(-0.0001026 3.2941e-06 7.0978e-08)
(-0.000102601 3.29411e-06 7.09769e-08)
(-0.000102601 3.29411e-06 7.09768e-08)
(-0.000102601 3.2941e-06 7.09774e-08)
(-0.0001026 3.29414e-06 7.09767e-08)
(-0.000102601 3.29407e-06 7.09761e-08)
(-0.000102601 3.29406e-06 7.09765e-08)
(-0.000102601 3.29418e-06 7.0978e-08)
(-0.000102601 3.29414e-06 7.09779e-08)
(-0.000102601 3.2941e-06 7.09767e-08)
(-0.000102601 3.2941e-06 7.0977e-08)
(-0.0001026 3.29407e-06 7.09773e-08)
(-0.000102601 3.29414e-06 7.09765e-08)
(-0.000173513 7.41115e-06 1.17644e-07)
(-0.000257316 1.22764e-05 1.72795e-07)
(-0.000270196 1.30247e-05 1.81276e-07)
(-0.0002702 1.30247e-05 1.81275e-07)
(-0.000270202 1.30247e-05 1.81277e-07)
(-0.000270199 1.30248e-05 1.81278e-07)
(-0.000270203 1.30246e-05 1.8127e-07)
(-0.000270201 1.30247e-05 1.81273e-07)
(-0.000270198 1.30247e-05 1.81277e-07)
(-0.000270199 1.30247e-05 1.81272e-07)
(-0.000270206 1.30247e-05 1.81278e-07)
(-0.000270197 1.30247e-05 1.81273e-07)
(-0.000270197 1.30242e-05 1.81269e-07)
(-0.000270204 1.30251e-05 1.81275e-07)
(-0.000270201 1.30254e-05 1.81281e-07)
(-0.000270201 1.30242e-05 1.81279e-07)
(-0.000270198 1.30243e-05 1.81278e-07)
(-0.000270192 1.30247e-05 1.81275e-07)
(-0.000270195 1.30252e-05 1.81272e-07)
(-0.000308646 1.61243e-05 2.04412e-07)
(-0.00048541 3.0375e-05 3.10781e-07)
(-0.000623722 4.15263e-05 3.94018e-07)
(-0.000623728 4.1526e-05 3.94026e-07)
(-0.000623734 4.15267e-05 3.94025e-07)
(-0.00062372 4.15272e-05 3.94015e-07)
(-0.000623723 4.15268e-05 3.94014e-07)
(-0.000623727 4.15263e-05 3.94023e-07)
(-0.000623721 4.15268e-05 3.94022e-07)
(-0.000623733 4.15272e-05 3.94022e-07)
(-0.000623734 4.15266e-05 3.94022e-07)
(-0.000623726 4.1527e-05 3.94022e-07)
(-0.000623718 4.15273e-05 3.94021e-07)
(-0.000623719 4.15267e-05 3.94021e-07)
(-0.000623728 4.15269e-05 3.94022e-07)
(-0.000623727 4.15262e-05 3.94022e-07)
(-0.000623727 4.15265e-05 3.94022e-07)
(-0.000623725 4.15275e-05 3.94023e-07)
(-0.000623731 4.15267e-05 3.94024e-07)
(-0.000623728 4.15267e-05 3.94016e-07)
(-0.000623707 4.15268e-05 3.94017e-07)
(-0.000623739 4.15268e-05 3.94027e-07)
(-0.000623736 4.15268e-05 3.94019e-07)
(-0.00062373 4.15267e-05 3.94021e-07)
(-0.000919885 7.2086e-05 5.46092e-07)
(-0.00125091 0.000106251 7.16101e-07)
(-0.00128581 0.000109858 7.34048e-07)
(-0.00128583 0.000109857 7.34041e-07)
(-0.00128579 0.000109857 7.34038e-07)
(-0.00128578 0.000109855 7.34046e-07)
(-0.00128581 0.000109854 7.3404e-07)
(-0.0012858 0.00010986 7.34074e-07)
(-0.00128588 0.000109861 7.34022e-07)
(-0.00128585 0.000109861 7.34044e-07)
(-0.00128585 0.000109857 7.34036e-07)
(-0.00128585 0.000109852 7.34026e-07)
(-0.00128579 0.00010986 7.34071e-07)
(-0.00128582 0.00010986 7.34031e-07)
(-0.00128582 0.000109855 7.34022e-07)
(-0.0012858 0.000109858 7.34035e-07)
(-0.0012858 0.000109857 7.341e-07)
(-0.00128586 0.00010986 7.34032e-07)
(-0.00128587 0.000109859 7.34015e-07)
(-0.00128585 0.000109857 7.341e-07)
(-0.00128583 0.000109855 7.34025e-07)
(-0.00128581 0.000109852 7.34029e-07)
(-0.00128582 0.000109862 7.34085e-07)
(-0.0012858 0.00010986 7.3401e-07)
(-0.00128584 0.000109857 7.34035e-07)
(-0.00152108 0.00013892 8.27448e-07)
(-0.00207974 0.000207965 1.04913e-06)
(-0.00240322 0.000247945 1.17754e-06)
(-0.00240327 0.000247937 1.1776e-06)
(-0.00240324 0.000247937 1.17758e-06)
(-0.00240325 0.000247941 1.17762e-06)
(-0.00240327 0.000247945 1.17759e-06)
(-0.00240321 0.000247941 1.17756e-06)
(-0.00240328 0.000247943 1.17756e-06)
(-0.00240328 0.000247945 1.17756e-06)
(-0.00240327 0.000247938 1.17759e-06)
(-0.00240324 0.000247944 1.17757e-06)
(-0.00240321 0.000247942 1.17763e-06)
(-0.00240331 0.000247939 1.17757e-06)
(-0.00240332 0.000247941 1.17755e-06)
(-0.00240326 0.000247944 1.17759e-06)
(-0.00240326 0.000247944 1.1776e-06)
(-0.00240325 0.000247936 1.17756e-06)
(-0.00240325 0.000247936 1.17756e-06)
(-0.00240325 0.000247944 1.17764e-06)
(-0.00240327 0.000247947 1.17758e-06)
(-0.00240322 0.000247941 1.17756e-06)
(-0.00240326 0.000247938 1.17755e-06)
(-0.00240328 0.00024794 1.17757e-06)
(-0.0024032 0.000247945 1.17761e-06)
(-0.00240325 0.000247942 1.17758e-06)
(-0.00240325 0.000247941 1.17758e-06)
(-0.00305677 0.000339783 1.35144e-06)
(-0.00392632 0.000461976 1.58275e-06)
(-0.00414231 0.000492336 1.64021e-06)
(-0.00414226 0.000492331 1.64019e-06)
(-0.00414227 0.000492326 1.64018e-06)
(-0.00414228 0.000492328 1.64017e-06)
(-0.00414229 0.000492334 1.64024e-06)
(-0.00414229 0.000492333 1.6402e-06)
(-0.00414195 0.000492339 1.64015e-06)
(-0.00414255 0.000492306 1.64025e-06)
(-0.00414228 0.000492295 1.64022e-06)
(-0.00414201 0.000492364 1.64019e-06)
(-0.00414226 0.000492351 1.64023e-06)
(-0.00414224 0.000492306 1.64017e-06)
(-0.00414287 0.000492326 1.64018e-06)
(-0.00414233 0.000492361 1.64024e-06)
(-0.00414218 0.000492365 1.64019e-06)
(-0.0041424 0.000492337 1.64017e-06)
(-0.00414199 0.00049231 1.64021e-06)
(-0.00414221 0.000492282 1.64025e-06)
(-0.00414243 0.000492318 1.64022e-06)
(-0.00414189 0.000492339 1.64021e-06)
(-0.00414247 0.000492343 1.64021e-06)
(-0.0041423 0.000492333 1.64016e-06)
(-0.004142 0.000492307 1.64018e-06)
(-0.00414232 0.000492343 1.6402e-06)
(-0.00414238 0.000492348 1.64018e-06)
(-0.00491427 0.000611412 1.75074e-06)
(-0.00617232 0.000805588 1.93089e-06)
(-0.00665902 0.000880666 2.00054e-06)
(-0.00665946 0.000880658 2.00054e-06)
(-0.00665929 0.000880651 2.00054e-06)
(-0.00665913 0.000880643 2.00054e-06)
(-0.00665916 0.000880642 2.00053e-06)
(-0.0066588 0.000880627 2.00053e-06)
(-0.00665923 0.000880639 2.00053e-06)
(-0.00665946 0.000880687 2.00053e-06)
(-0.00665892 0.000880651 2.00052e-06)
(-0.00665895 0.000880648 2.00058e-06)
(-0.00665899 0.000880645 2.00052e-06)
(-0.00665921 0.000880653 2.00052e-06)
(-0.00665944 0.000880662 2.00057e-06)
(-0.00665872 0.000880636 2.00028e-06)
(-0.00665894 0.000880644 2.00056e-06)
(-0.00665917 0.000880652 2.00056e-06)
(-0.00665901 0.000880627 2.00056e-06)
(-0.00665942 0.000880602 2.00056e-06)
(-0.00665909 0.000880666 2.00055e-06)
(-0.00665912 0.000880651 2.00055e-06)
(-0.00665934 0.000880659 2.00055e-06)
(-0.00665901 0.000880667 2.00055e-06)
(-0.00665905 0.000880653 2.00054e-06)
(-0.00665926 0.000880661 2.00054e-06)
(-0.00665912 0.000880636 2.00054e-06)
(-0.00755167 0.0010289 2.05035e-06)
(-0.00924999 0.00131107 2.14518e-06)
(-0.0100558 0.00144492 2.19086e-06)
(-0.0100561 0.00144488 2.19053e-06)
(-0.0100564 0.00144488 2.19015e-06)
(-0.0100561 0.00144488 2.1903e-06)
(-0.0100558 0.00144487 2.19045e-06)
(-0.0100561 0.00144487 2.1906e-06)
(-0.0100558 0.00144487 2.19023e-06)
(-0.0100561 0.00144487 2.19038e-06)
(-0.0100558 0.00144491 2.19048e-06)
(-0.0100556 0.0014449 2.19011e-06)
(-0.0100563 0.00144486 2.19031e-06)
(-0.0100561 0.0014449 2.1904e-06)
(-0.0100558 0.00144487 2.19045e-06)
(-0.010056 0.00144486 2.19055e-06)
(-0.0100558 0.00144491 2.19069e-06)
(-0.010056 0.0014449 2.19029e-06)
(-0.0100562 0.00144488 2.19038e-06)
(-0.010056 0.00144487 2.19048e-06)
(-0.0100562 0.00144489 2.19003e-06)
(-0.0100559 0.00144488 2.19061e-06)
(-0.0100557 0.00144487 2.19071e-06)
(-0.0100559 0.0014449 2.19032e-06)
(-0.0100561 0.00144489 2.19041e-06)
(-0.0100563 0.00144486 2.19041e-06)
(-0.010056 0.00144488 2.19045e-06)
(-0.0118552 0.00176517 2.25005e-06)
(-0.0139911 0.00214534 2.32146e-06)
(-0.0143274 0.00220529 2.33302e-06)
(-0.0143277 0.00220531 2.33287e-06)
(-0.014328 0.00220529 2.33264e-06)
(-0.0143274 0.00220526 2.33249e-06)
(-0.0143274 0.00220524 2.33287e-06)
(-0.0143276 0.00220526 2.33265e-06)
(-0.0143279 0.00220528 2.33242e-06)
(-0.0143277 0.0022053 2.33265e-06)
(-0.0143275 0.00220519 2.33288e-06)
(-0.0143278 0.00220512 2.33318e-06)
(-0.0143276 0.00220559 2.33296e-06)
(-0.0143273 0.00220547 2.33267e-06)
(-0.0143276 0.00220496 2.33245e-06)
(-0.0143279 0.00220538 2.33274e-06)
(-0.0143276 0.00220526 2.3329e-06)
(-0.0143277 0.0022051 2.33253e-06)
(-0.0143275 0.00220547 2.33275e-06)
(-0.0143274 0.00220545 2.33261e-06)
(-0.0143277 0.00220538 2.33283e-06)
(-0.0143278 0.00220523 2.33291e-06)
(-0.0143279 0.00220507 2.33255e-06)
(-0.0143276 0.00220497 2.3327e-06)
(-0.0143278 0.00220528 2.33284e-06)
(-0.0143296 0.00220559 2.33298e-06)
(-0.0163014 0.00258544 2.53646e-06)
(-0.018795 0.00306597 2.79412e-06)
(-0.0193161 0.00316684 2.84808e-06)
(-0.019315 0.0031665 2.84795e-06)
(-0.0193183 0.00316632 2.84805e-06)
(-0.0193174 0.00316656 2.84774e-06)
(-0.0193165 0.0031664 2.84784e-06)
(-0.0193157 0.00316623 2.84795e-06)
(-0.0193148 0.00316646 2.84804e-06)
(-0.0193181 0.00316647 2.84798e-06)
(-0.0193172 0.0031663 2.84767e-06)
(-0.0193164 0.00316653 2.84817e-06)
(-0.0193158 0.0031663 2.84794e-06)
(-0.0193152 0.00316647 2.8477e-06)
(-0.0193183 0.0031667 2.84819e-06)
(-0.0193175 0.00316654 2.84789e-06)
(-0.0193168 0.00316654 2.84783e-06)
(-0.0193161 0.00316615 2.84815e-06)
(-0.0193154 0.00316615 2.84808e-06)
(-0.0193187 0.0031667 2.84785e-06)
(-0.0193182 0.00316664 2.84784e-06)
(-0.0193177 0.00316641 2.84799e-06)
(-0.019317 0.00316642 2.84792e-06)
(-0.0193163 0.00316642 2.84786e-06)
(-0.0193158 0.0031662 2.84801e-06)
(-0.0206925 0.00346013 3.24778e-06)
(-0.023386 0.00403567 4.02989e-06)
(-0.0247005 0.00431668 4.41253e-06)
(-0.0247001 0.00431627 4.4124e-06)
(-0.0246997 0.0043166 4.41227e-06)
(-0.0246993 0.00431656 4.4125e-06)
(-0.0246997 0.00431657 4.41281e-06)
(-0.0247002 0.00431659 4.41239e-06)
(-0.0247025 0.00431649 4.41219e-06)
(-0.0247013 0.00431639 4.4127e-06)
(-0.0246973 0.00431635 4.41257e-06)
(-0.0246996 0.00431661 4.41237e-06)
(-0.024702 0.00431651 4.41252e-06)
(-0.0247016 0.00431647 4.41239e-06)
(-0.0247004 0.00431672 4.41254e-06)
(-0.0246983 0.00431658 4.41262e-06)
(-0.0247006 0.00431648 4.41242e-06)
(-0.0247002 0.00431644 4.4123e-06)
(-0.024699 0.00431635 4.41245e-06)
(-0.0247005 0.00431654 4.41253e-06)
(-0.0247019 0.00431673 4.41226e-06)
(-0.0247033 0.00431659 4.41268e-06)
(-0.0247013 0.00431644 4.41275e-06)
(-0.0246994 0.00431663 4.41216e-06)
(-0.0248965 0.00436558 4.53462e-06)
(-0.0275588 0.00502176 6.17517e-06)
(-0.0300247 0.00562918 7.69307e-06)
(-0.0300262 0.0056293 7.69322e-06)
(-0.0300261 0.00562936 7.69299e-06)
(-0.0300244 0.00562949 7.69313e-06)
(-0.0300226 0.00562928 7.69328e-06)
(-0.0300241 0.00562908 7.6931e-06)
(-0.030024 0.00562926 7.69329e-06)
(-0.0300223 0.00562938 7.69312e-06)
(-0.0300238 0.0056295 7.69294e-06)
(-0.0300268 0.00562936 7.69313e-06)
(-0.0300267 0.00562922 7.69332e-06)
(-0.0300235 0.0056294 7.6932e-06)
(-0.0300233 0.00562926 7.69307e-06)
(-0.0300232 0.00562912 7.69326e-06)
(-0.0300231 0.0056293 7.69314e-06)
(-0.0300246 0.00562953 7.69306e-06)
(-0.030026 0.00562945 7.69299e-06)
(-0.0300259 0.00562931 7.69317e-06)
(-0.0300242 0.00562924 7.6934e-06)
(-0.0300241 0.00562922 7.69307e-06)
(-0.0300225 0.00562944 7.693e-06)
(-0.0300239 0.00562937 7.69323e-06)
(-0.0312504 0.00600031 9.04075e-06)
(-0.0336294 0.0067197 1.16537e-05)
(-0.0347801 0.00706812 1.29192e-05)
(-0.0347789 0.00706823 1.29195e-05)
(-0.03478 0.0070682 1.29196e-05)
(-0.034781 0.00706818 1.29194e-05)
(-0.034782 0.00706815 1.29194e-05)
(-0.034778 0.00706826 1.29194e-05)
(-0.0347797 0.00706836 1.29193e-05)
(-0.0347808 0.00706834 1.29194e-05)
(-0.0347796 0.00706816 1.29191e-05)
(-0.0347793 0.00706811 1.29198e-05)
(-0.034781 0.00706822 1.29197e-05)
(-0.0347799 0.00706832 1.29188e-05)
(-0.0347775 0.00706813 1.29199e-05)
(-0.03478 0.00706836 1.292e-05)
(-0.0347816 0.00706847 1.29191e-05)
(-0.034782 0.007068 1.29202e-05)
(-0.0347789 0.00706823 1.29203e-05)
(-0.0347779 0.00706833 1.29194e-05)
(-0.034781 0.00706814 1.29178e-05)
(-0.034782 0.00706808 1.29171e-05)
(-0.0347797 0.00706817 1.29208e-05)
(-0.0363359 0.00770442 1.56799e-05)
(-0.0381977 0.00846561 1.89799e-05)
(-0.0385026 0.00859078 1.95246e-05)
(-0.0385042 0.00859069 1.95242e-05)
(-0.0385034 0.00859079 1.95238e-05)
(-0.0385026 0.00859063 1.95234e-05)
(-0.0385044 0.00858943 1.95231e-05)
(-0.0385062 0.0085903 1.95253e-05)
(-0.0385056 0.0085916 1.9525e-05)
(-0.0385024 0.00859187 1.95221e-05)
(-0.0385017 0.00859069 1.95217e-05)
(-0.0385036 0.00859096 1.9524e-05)
(-0.0385057 0.00859015 1.95238e-05)
(-0.0385053 0.00858934 1.95235e-05)
(-0.0385023 0.00859211 1.95257e-05)
(-0.0385017 0.00858989 1.95254e-05)
(-0.0385038 0.00858909 1.95227e-05)
(-0.0385058 0.00859077 1.95225e-05)
(-0.0385032 0.00859137 1.95247e-05)
(-0.038503 0.00859198 1.95246e-05)
(-0.038505 0.00859119 1.95243e-05)
(-0.0385288 0.00860728 1.95916e-05)
(-0.0397087 0.00938744 2.28776e-05)
(-0.0408638 0.0101508 2.60948e-05)
(-0.0408646 0.0101512 2.6095e-05)
(-0.040863 0.0101517 2.60977e-05)
(-0.0408636 0.010151 2.60972e-05)
(-0.0408666 0.0101526 2.60968e-05)
(-0.0408649 0.0101519 2.60963e-05)
(-0.0408632 0.0101512 2.60959e-05)
(-0.0408637 0.0101517 2.60947e-05)
(-0.0408643 0.0101521 2.60959e-05)
(-0.0408649 0.0101537 2.60977e-05)
(-0.0408654 0.0101518 2.60966e-05)
(-0.0408635 0.0101511 2.60948e-05)
(-0.040864 0.0101504 2.60952e-05)
(-0.0408645 0.0101508 2.60964e-05)
(-0.0408627 0.0101535 2.60975e-05)
(-0.0408654 0.0101528 2.60957e-05)
(-0.0408658 0.0101521 2.60961e-05)
(-0.0408639 0.0101525 2.60981e-05)
(-0.0408642 0.0101506 2.60957e-05)
(-0.0408821 0.0101849 2.61965e-05)
(-0.0413084 0.0109634 2.85067e-05)
(-0.0417151 0.0117064 3.07155e-05)
(-0.0417134 0.0117069 3.07164e-05)
(-0.0417162 0.0117066 3.07164e-05)
(-0.0417169 0.0117062 3.07163e-05)
(-0.041713 0.0117076 3.07182e-05)
(-0.0417133 0.0117069 3.07179e-05)
(-0.0417159 0.0117053 3.07167e-05)
(-0.0417163 0.0117079 3.07155e-05)
(-0.0417147 0.0117084 3.07164e-05)
(-0.041715 0.0117056 3.07161e-05)
(-0.0417151 0.0117058 3.07169e-05)
(-0.0417132 0.011706 3.07176e-05)
(-0.0417153 0.0117061 3.07163e-05)
(-0.0417073 0.0117083 3.0717e-05)
(-0.0417115 0.0117064 3.07157e-05)
(-0.0417298 0.0117066 3.07164e-05)
(-0.0417178 0.0117067 3.07171e-05)
(-0.0417017 0.0117057 3.07167e-05)
(-0.0417214 0.0117075 3.07173e-05)
(-0.0414484 0.0123634 3.10849e-05)
(-0.041137 0.0131147 3.1506e-05)
(-0.0411002 0.0132122 3.15599e-05)
(-0.0411028 0.0132128 3.15604e-05)
(-0.0411055 0.0132114 3.1559e-05)
(-0.0410887 0.0132119 3.15595e-05)
(-0.0410914 0.0132106 3.15619e-05)
(-0.0411093 0.0132099 3.15613e-05)
(-0.0411041 0.0132117 3.15595e-05)
(-0.0410836 0.0132129 3.15589e-05)
(-0.0411013 0.0132122 3.15602e-05)
(-0.041115 0.0132103 3.15604e-05)
(-0.0410911 0.0132121 3.15606e-05)
(-0.0410821 0.0132127 3.15597e-05)
(-0.0411104 0.0132114 3.15607e-05)
(-0.0411053 0.0132114 3.15609e-05)
(-0.0411001 0.0132113 3.15592e-05)
(-0.0410914 0.0132119 3.15602e-05)
(-0.0410971 0.0132112 3.15601e-05)
(-0.0406686 0.0135418 3.06316e-05)
(-0.0397195 0.014249 2.86484e-05)
(-0.0392094 0.0146235 2.75939e-05)
(-0.0392023 0.014624 2.75937e-05)
(-0.0392167 0.0146239 2.75941e-05)
(-0.0392133 0.0146239 2.75946e-05)
(-0.0392205 0.0146248 2.75937e-05)
(-0.0392312 0.0146235 2.75935e-05)
(-0.0392208 0.0146244 2.75943e-05)
(-0.0392072 0.014624 2.75945e-05)
(-0.0392177 0.0146227 2.75943e-05)
(-0.039211 0.0146249 2.75941e-05)
(-0.0392146 0.0146245 2.75926e-05)
(-0.0392151 0.0146229 2.75939e-05)
(-0.0392153 0.0146247 2.75951e-05)
(-0.0392191 0.0146243 2.75936e-05)
(-0.0392058 0.0146239 2.75938e-05)
(-0.0392229 0.014624 2.75934e-05)
(-0.0392232 0.0146241 2.75929e-05)
(-0.0380782 0.0151327 2.42321e-05)
(-0.0366585 0.0157725 2.0002e-05)
(-0.0363711 0.0159027 1.91322e-05)
(-0.0363651 0.0159038 1.91314e-05)
(-0.0363592 0.0159049 1.91321e-05)
(-0.0363636 0.0159034 1.91314e-05)
(-0.036371 0.0159032 1.91323e-05)
(-0.0363651 0.0159027 1.9133e-05)
(-0.0363535 0.0159044 1.91323e-05)
(-0.0363578 0.0159046 1.91316e-05)
(-0.0363622 0.0159031 1.91309e-05)
(-0.0363636 0.0159036 1.91319e-05)
(-0.0363651 0.015904 1.91328e-05)
(-0.0363665 0.0159029 1.91322e-05)
(-0.0363679 0.0159034 1.91316e-05)
(-0.0363664 0.0159041 1.91326e-05)
(-0.0363651 0.0159034 1.9132e-05)
(-0.0363664 0.0159038 1.91314e-05)
(-0.0349504 0.0163548 1.45918e-05)
(-0.0331875 0.0169102 9.00709e-06)
(-0.0328626 0.0170143 7.96194e-06)
(-0.0328749 0.0170147 7.96242e-06)
(-0.0328869 0.017015 7.96289e-06)
(-0.0328841 0.0170139 7.96187e-06)
(-0.0328615 0.0170133 7.96264e-06)
(-0.0328662 0.0170143 7.96283e-06)
(-0.0328757 0.0170149 7.9627e-06)
(-0.0328851 0.017014 7.96259e-06)
(-0.0328776 0.0170134 7.96188e-06)
(-0.0328676 0.0170144 7.96207e-06)
(-0.0328842 0.0170142 7.96167e-06)
(-0.0328744 0.0170138 7.96328e-06)
(-0.0328646 0.0170148 7.96346e-06)
(-0.0328786 0.0170134 7.96249e-06)
(-0.0328785 0.0170134 7.96154e-06)
(-0.0319537 0.0172364 5.24243e-06)
(-0.0300408 0.0176905 -3.42234e-07)
(-0.0290615 0.0179236 -3.21015e-06)
(-0.0290632 0.0179237 -3.21166e-06)
(-0.0290648 0.0179237 -3.21177e-06)
(-0.0290664 0.0179238 -3.21051e-06)
(-0.0290543 0.0179239 -3.21062e-06)
(-0.0290676 0.0179241 -3.21052e-06)
(-0.0290673 0.0179243 -3.21041e-06)
(-0.0290668 0.0179246 -3.21031e-06)
(-0.0290626 0.0179237 -3.20978e-06)
(-0.0290583 0.0179229 -3.21058e-06)
(-0.0290713 0.0179244 -3.21181e-06)
(-0.029069 0.0179248 -3.2115e-06)
(-0.0290629 0.0179228 -3.21075e-06)
(-0.0290568 0.0179234 -3.21002e-06)
(-0.0290638 0.017924 -3.2106e-06)
(-0.0275556 0.0181916 -6.56979e-06)
(-0.0256138 0.0185342 -1.08819e-05)
(-0.0251947 0.0186096 -1.18365e-05)
(-0.0251922 0.0186097 -1.18362e-05)
(-0.0251897 0.0186085 -1.1836e-05)
(-0.0251857 0.0186087 -1.18362e-05)
(-0.0251942 0.0186101 -1.18365e-05)
(-0.0251903 0.0186103 -1.18368e-05)
(-0.0251846 0.0186093 -1.18363e-05)
(-0.0252024 0.0186084 -1.18363e-05)
(-0.0251969 0.0186087 -1.18371e-05)
(-0.0251898 0.0186103 -1.18359e-05)
(-0.0251812 0.0186095 -1.18352e-05)
(-0.0251864 0.0186086 -1.18364e-05)
(-0.0251902 0.0186103 -1.18369e-05)
(-0.0251922 0.0186096 -1.18367e-05)
(-0.0239677 0.0187556 -1.33507e-05)
(-0.0220917 0.0189799 -1.56569e-05)
(-0.0214499 0.0190553 -1.64493e-05)
(-0.021443 0.019055 -1.64495e-05)
(-0.0214493 0.0190559 -1.64508e-05)
(-0.0214437 0.0190568 -1.64508e-05)
(-0.0214486 0.0190565 -1.64498e-05)
(-0.0214536 0.0190551 -1.64501e-05)
(-0.0214456 0.019056 -1.64493e-05)
(-0.021448 0.0190559 -1.645e-05)
(-0.0214401 0.0190557 -1.64504e-05)
(-0.0214437 0.0190566 -1.64497e-05)
(-0.0214562 0.0190554 -1.64494e-05)
(-0.021446 0.0190553 -1.64491e-05)
(-0.021437 0.0190563 -1.64497e-05)
(-0.0213025 0.0190641 -1.64765e-05)
(-0.019561 0.0191645 -1.67723e-05)
(-0.0179532 0.0192576 -1.70427e-05)
(-0.0179582 0.0192577 -1.70443e-05)
(-0.0179613 0.0192569 -1.70439e-05)
(-0.0179543 0.019257 -1.70435e-05)
(-0.0179584 0.0192572 -1.7043e-05)
(-0.0179604 0.0192564 -1.70428e-05)
(-0.0179624 0.0192566 -1.70438e-05)
(-0.0179654 0.0192601 -1.70435e-05)
(-0.0179674 0.0192571 -1.70433e-05)
(-0.0179578 0.0192595 -1.70433e-05)
(-0.0179578 0.0192535 -1.70435e-05)
(-0.017958 0.0192474 -1.70437e-05)
(-0.0179589 0.0192635 -1.70437e-05)
(-0.0179059 0.0192566 -1.70043e-05)
(-0.0163133 0.0192278 -1.60014e-05)
(-0.0147917 0.019221 -1.50376e-05)
(-0.0148056 0.0192246 -1.50369e-05)
(-0.0148084 0.0192169 -1.50375e-05)
(-0.0148001 0.0192084 -1.50373e-05)
(-0.014802 0.01921 -1.50372e-05)
(-0.0148032 0.0192208 -1.50382e-05)
(-0.0147943 0.0192215 -1.50373e-05)
(-0.0147962 0.019213 -1.50371e-05)
(-0.0148067 0.0192127 -1.50375e-05)
(-0.0148064 0.0192115 -1.5037e-05)
(-0.0147969 0.0192112 -1.50384e-05)
(-0.0147958 0.0192188 -1.50382e-05)
(-0.0148068 0.0192195 -1.50373e-05)
(-0.0141256 0.019151 -1.45478e-05)
(-0.0127167 0.0190094 -1.35408e-05)
(-0.0119961 0.0189367 -1.30237e-05)
(-0.0120057 0.0189418 -1.30236e-05)
(-0.0120019 0.0189368 -1.3023e-05)
(-0.0119981 0.0189413 -1.30234e-05)
(-0.0120114 0.0189469 -1.30237e-05)
(-0.0120057 0.0189335 -1.30241e-05)
(-0.0120019 0.0189379 -1.30235e-05)
(-0.0119982 0.0189425 -1.30239e-05)
(-0.0120018 0.0189385 -1.30242e-05)
(-0.0120056 0.0189439 -1.30236e-05)
(-0.0119963 0.0189396 -1.30235e-05)
(-0.0120055 0.0189353 -1.30234e-05)
(-0.0115183 0.0188484 -1.31916e-05)
(-0.0102932 0.0185992 -1.3609e-05)
(-0.00956561 0.0184434 -1.38588e-05)
(-0.00956757 0.0184504 -1.38586e-05)
(-0.00956484 0.0184567 -1.38582e-05)
(-0.0095625 0.0184554 -1.38589e-05)
(-0.00956483 0.0184458 -1.38588e-05)
(-0.00957135 0.0184534 -1.38586e-05)
(-0.00956448 0.0184514 -1.38583e-05)
(-0.00956633 0.0184494 -1.38581e-05)
(-0.00956828 0.0184562 -1.38587e-05)
(-0.00956595 0.0184462 -1.38585e-05)
(-0.00956824 0.0184456 -1.38584e-05)
(-0.00956595 0.0184529 -1.3859e-05)
(-0.0087651 0.0181948 -1.56786e-05)
(-0.00771782 0.0178537 -1.80726e-05)
(-0.00747458 0.0177712 -1.86483e-05)
(-0.00747364 0.0177731 -1.86495e-05)
(-0.00746747 0.0177741 -1.86493e-05)
(-0.00746654 0.0177759 -1.86488e-05)
(-0.00747089 0.0177704 -1.86481e-05)
(-0.00747515 0.0177649 -1.86482e-05)
(-0.00747119 0.0177759 -1.86491e-05)
(-0.00747026 0.0177778 -1.86486e-05)
(-0.00747245 0.0177705 -1.86484e-05)
(-0.0074685 0.0177732 -1.86493e-05)
(-0.00746969 0.0177769 -1.86492e-05)
(-0.00698688 0.0175457 -2.05491e-05)
(-0.00609874 0.0171239 -2.40786e-05)
(-0.00568582 0.0169298 -2.57081e-05)
(-0.00568253 0.0169286 -2.57087e-05)
(-0.0056872 0.0169352 -2.57084e-05)
(-0.0056862 0.0169328 -2.57083e-05)
(-0.00567738 0.0169303 -2.57084e-05)
(-0.00567976 0.0169381 -2.57084e-05)
(-0.00568218 0.0169303 -2.57084e-05)
(-0.00568671 0.016929 -2.57084e-05)
(-0.00568359 0.0169355 -2.57084e-05)
(-0.00568041 0.0169343 -2.57084e-05)
(-0.00568279 0.0169342 -2.57084e-05)
(-0.00514126 0.0165867 -2.81236e-05)
(-0.00438633 0.0160968 -3.15041e-05)
(-0.00417103 0.015964 -3.24697e-05)
(-0.00416731 0.0159672 -3.24697e-05)
(-0.00416201 0.0159569 -3.24697e-05)
(-0.00417159 0.0159615 -3.24697e-05)
(-0.00416791 0.0159647 -3.24691e-05)
(-0.00416269 0.0159619 -3.2469e-05)
(-0.00417213 0.0159664 -3.24697e-05)
(-0.0041685 0.0159622 -3.24699e-05)
(-0.00416905 0.015961 -3.24697e-05)
(-0.00416968 0.0159598 -3.24694e-05)
(-0.00399463 0.0158128 -3.3131e-05)
(-0.00335707 0.0152842 -3.55873e-05)
(-0.0028855 0.0148954 -3.73818e-05)
(-0.00288638 0.0148906 -3.73818e-05)
(-0.00288826 0.0148911 -3.73816e-05)
(-0.00288811 0.0148951 -3.73811e-05)
(-0.00288696 0.014887 -3.73816e-05)
(-0.00288781 0.0148892 -3.73816e-05)
(-0.00288866 0.0148914 -3.73816e-05)
(-0.00288851 0.0148885 -3.73818e-05)
(-0.00288253 0.0148907 -3.73811e-05)
(-0.00288336 0.0148929 -3.73812e-05)
(-0.00278783 0.0147905 -3.75712e-05)
(-0.00224943 0.0142118 -3.85992e-05)
(-0.00180966 0.0137466 -3.9437e-05)
(-0.00180181 0.0137471 -3.94368e-05)
(-0.00180609 0.013745 -3.94369e-05)
(-0.00181038 0.0137496 -3.94371e-05)
(-0.00180205 0.0137455 -3.9437e-05)
(-0.00180032 0.0137414 -3.9437e-05)
(-0.00180514 0.0137504 -3.9437e-05)
(-0.00180933 0.0137484 -3.94371e-05)
(-0.00180704 0.0137464 -3.94372e-05)
(-0.00180533 0.0137488 -3.94372e-05)
(-0.00160582 0.0134832 -3.89171e-05)
(-0.00114671 0.0128884 -3.77436e-05)
(-0.000887205 0.0125539 -3.70849e-05)
(-0.000889019 0.0125599 -3.70807e-05)
(-0.000891124 0.0125573 -3.70882e-05)
(-0.000886951 0.0125546 -3.70893e-05)
(-0.000888741 0.0125606 -3.70851e-05)
(-0.000891092 0.0125557 -3.70854e-05)
(-0.000887251 0.012557 -3.70856e-05)
(-0.000889015 0.0125567 -3.70877e-05)
(-0.000890792 0.0125564 -3.70836e-05)
(-0.000880409 0.0125441 -3.69826e-05)
(-0.000496413 0.0119384 -3.29367e-05)
(-0.000114335 0.0113478 -2.89952e-05)
(-0.000113759 0.0113473 -2.8994e-05)
(-0.000113245 0.0113468 -2.89928e-05)
(-0.000112679 0.0113464 -2.89976e-05)
(-0.000112206 0.0113493 -2.89932e-05)
(-0.000111686 0.0113463 -2.89947e-05)
(-0.000116994 0.0113483 -2.89909e-05)
(-0.000116415 0.0113504 -2.8993e-05)
(-0.000110095 0.0113442 -2.89977e-05)
(-0.000109561 0.0113495 -2.89908e-05)
(0.00018874 0.0107935 -2.27525e-05)
(0.000519937 0.010183 -1.59727e-05)
(0.000545923 0.0101393 -1.54336e-05)
(0.000543297 0.0101358 -1.5433e-05)
(0.000540848 0.0101352 -1.5431e-05)
(0.000543864 0.0101374 -1.54303e-05)
(0.000546878 0.0101395 -1.54297e-05)
(0.000544447 0.0101389 -1.54333e-05)
(0.000541889 0.0101355 -1.54327e-05)
(0.000544694 0.0101403 -1.54278e-05)
(0.000580435 0.0100714 -1.44982e-05)
(0.000855222 0.00946982 -6.16155e-06)
(0.00109575 0.00893952 1.24763e-06)
(0.00109611 0.00894168 1.25268e-06)
(0.00110214 0.00894623 1.25271e-06)
(0.0011025 0.00894302 1.24698e-06)
(0.00110223 0.00894035 1.25133e-06)
(0.00110199 0.00894305 1.25034e-06)
(0.00109705 0.00893988 1.24999e-06)
(0.00109739 0.00894197 1.25492e-06)
(0.00110269 0.00894174 1.24904e-06)
(0.00123766 0.00859897 5.80466e-06)
(0.00147013 0.00801507 1.35778e-05)
(0.00156661 0.00777119 1.67895e-05)
(0.0015641 0.00777436 1.67846e-05)
(0.00156672 0.0077724 1.67849e-05)
(0.00156972 0.00777241 1.67894e-05)
(0.00156764 0.00777245 1.67838e-05)
(0.00156556 0.00777246 1.67833e-05)
(0.00156314 0.00777055 1.67836e-05)
(0.00156529 0.00777167 1.67846e-05)
(0.00163221 0.00758663 1.83394e-05)
(0.00182731 0.00701492 2.30012e-05)
(0.00195675 0.00663716 2.6116e-05)
(0.00195205 0.00664383 2.61155e-05)
(0.00195762 0.00664233 2.61115e-05)
(0.0019588 0.00663758 2.61139e-05)
(0.00195416 0.00663932 2.61134e-05)
(0.00195391 0.00663947 2.61114e-05)
(0.0019546 0.00664276 2.61123e-05)
(0.00195528 0.00664131 2.61132e-05)
(0.00201218 0.00645403 2.62402e-05)
(0.00217694 0.00591508 2.66158e-05)
(0.00227956 0.00555348 2.68574e-05)
(0.00227824 0.00555554 2.68581e-05)
(0.00228624 0.00555763 2.68588e-05)
(0.00228493 0.00555504 2.68548e-05)
(0.00227901 0.00555249 2.686e-05)
(0.0022823 0.00555452 2.68607e-05)
(0.00228052 0.00555531 2.68552e-05)
(0.00227819 0.00555479 2.68573e-05)
(0.00236657 0.00524912 2.52791e-05)
(0.00249989 0.00473517 2.26162e-05)
(0.00255594 0.00452999 2.15349e-05)
(0.00255738 0.00452663 2.15326e-05)
(0.00255375 0.00452671 2.15327e-05)
(0.0025546 0.00452681 2.15328e-05)
(0.00255599 0.00452788 2.15327e-05)
(0.00255794 0.00452995 2.15326e-05)
(0.0025544 0.00452568 2.15326e-05)
(0.0025633 0.00448591 2.1173e-05)
(0.00268081 0.00400527 1.69364e-05)
(0.00278482 0.00356575 1.3059e-05)
(0.0027882 0.0035696 1.30589e-05)
(0.00278735 0.00356491 1.30593e-05)
(0.00278341 0.00356598 1.30588e-05)
(0.00278795 0.00356708 1.30587e-05)
(0.0027871 0.00356663 1.30591e-05)
(0.00278623 0.00356622 1.3059e-05)
(0.0027854 0.00356579 1.30589e-05)
(0.00286698 0.0032109 8.901e-06)
(0.00296522 0.00276803 3.74316e-06)
(0.00297994 0.00268114 2.74417e-06)
(0.00298227 0.00268079 2.74435e-06)
(0.00298459 0.00268046 2.74412e-06)
(0.00298285 0.00268012 2.7443e-06)
(0.00298111 0.0026838 2.74448e-06)
(0.0029828 0.00268293 2.7445e-06)
(0.00298051 0.00268205 2.74413e-06)
(0.00304143 0.00238092 -1.41467e-06)
(0.00312631 0.00197539 -6.97941e-06)
(0.00314757 0.00187597 -8.3854e-06)
(0.00314454 0.00187501 -8.38555e-06)
(0.00314479 0.00187366 -8.38562e-06)
(0.00314894 0.00187621 -8.3853e-06)
(0.00314655 0.0018756 -8.38552e-06)
(0.00314357 0.00187464 -8.38566e-06)
(0.00314704 0.00187678 -8.38566e-06)
(0.00320792 0.00155351 -1.36997e-05)
(0.00327285 0.00118679 -1.96116e-05)
(0.00328005 0.00115101 -2.02095e-05)
(0.00327967 0.00115313 -2.02093e-05)
(0.00327991 0.00115169 -2.02091e-05)
(0.00327893 0.00115356 -2.02092e-05)
(0.00328104 0.00115151 -2.02093e-05)
(0.00328068 0.00114989 -2.0209e-05)
(0.00329185 0.00106821 -2.18307e-05)
(0.00334962 0.000746969 -2.82101e-05)
(0.00339131 0.00050725 -3.29674e-05)
(0.00338922 0.00050478 -3.29656e-05)
(0.00338776 0.000506006 -3.29661e-05)
(0.00338988 0.000507236 -3.29666e-05)
(0.003392 0.000508439 -3.29636e-05)
(0.00338995 0.000506027 -3.29653e-05)
(0.00338792 0.000503604 -3.29671e-05)
(0.00342848 0.000277471 -3.73712e-05)
(0.00347582 -1.03349e-05 -4.28452e-05)
(0.00348038 -6.9469e-05 -4.39111e-05)
(0.00348081 -6.91328e-05 -4.39094e-05)
(0.00348185 -6.53787e-05 -4.39119e-05)
(0.00348287 -6.50607e-05 -4.39144e-05)
(0.0034833 -6.81667e-05 -4.39128e-05)
(0.00348371 -6.7843e-05 -4.39111e-05)
(0.00350434 -0.000205616 -4.55262e-05)
(0.00354222 -0.000460172 -4.84931e-05)
(0.00355972 -0.000578784 -4.98461e-05)
(0.00355918 -0.000576007 -4.98452e-05)
(0.00356196 -0.000573223 -4.98443e-05)
(0.00356201 -0.000577172 -4.9845e-05)
(0.00356146 -0.000577716 -4.98474e-05)
(0.00356093 -0.000574979 -4.98465e-05)
(0.00357395 -0.000679434 -4.97985e-05)
(0.00360572 -0.000906002 -4.9704e-05)
(0.00362435 -0.00102449 -4.96553e-05)
(0.00362354 -0.00102293 -4.96521e-05)
(0.00362533 -0.00102441 -4.96505e-05)
(0.00362453 -0.00102605 -4.96537e-05)
(0.00362371 -0.00102767 -4.96538e-05)
(0.00362493 -0.00102581 -4.96507e-05)
(0.00363548 -0.00113329 -4.81232e-05)
(0.00366269 -0.00133397 -4.53954e-05)
(0.00367417 -0.00142126 -4.41955e-05)
(0.00367202 -0.00142062 -4.4194e-05)
(0.00367297 -0.00142308 -4.41924e-05)
(0.00367141 -0.00141962 -4.41946e-05)