/*--------------------------------*- C++ -*----------------------------------*\
| =========                 |                                                 |
| \\      /  F ield         | OpenFOAM: The Open Source CFD Toolbox           |
|  \\    /   O peration     | Version:  v1806                                 |
|   \\  /    A nd           | Web:      www.OpenFOAM.com                      |
|    \\/     M anipulation  |                                                 |
\*---------------------------------------------------------------------------*/
FoamFile
{
    version     2.0;
    format      ascii;
    class       volScalarField;
    location    "10000";
    object      k_DNS;
}
// * * * * * * * * * * * * * * * * * * * * * * * * * * * * * * * * * * * * * //

dimensions      [0 2 -2 0 0 0 0];


internalField   nonuniform List<scalar> 
1025
(
2.66933e-08
8.02056e-08
3.32075e-07
5.8529e-07
8.39694e-07
1.0962e-06
1.77607e-06
2.45914e-06
3.14543e-06
3.83494e-06
4.5277e-06
5.22372e-06
5.92302e-06
7.1101e-06
8.55687e-06
1.00104e-05
1.14708e-05
1.29381e-05
1.44123e-05
1.58935e-05
1.73816e-05
1.88767e-05
2.03788e-05
2.1888e-05
2.38222e-05
2.65118e-05
2.9214e-05
3.19289e-05
3.46565e-05
3.73969e-05
4.01504e-05
4.29166e-05
4.56959e-05
4.84886e-05
5.12944e-05
5.41132e-05
5.6945e-05
5.97903e-05
6.26492e-05
6.55216e-05
6.98691e-05
7.45043e-05
7.91613e-05
8.38402e-05
8.8541e-05
9.32642e-05
9.80097e-05
0.000102777
0.000107567
0.00011238
0.000117215
0.000122073
0.000126954
0.000131858
0.000136784
0.000141735
0.000146709
0.000151705
0.000156725
0.000162305
0.000169849
0.000177428
0.000185042
0.000192692
0.000200379
0.000208101
0.00021586
0.000223656
0.000231488
0.000239357
0.000247263
0.000255206
0.000263187
0.000271206
0.000279261
0.000287355
0.000295487
0.000303657
0.000311866
0.000320114
0.0003284
0.000336725
0.00034509
0.000356513
0.000368348
0.000380238
0.000392184
0.000404186
0.000416245
0.000428362
0.000440534
0.000452764
0.000465051
0.000477397
0.000489801
0.000502264
0.000514785
0.000527364
0.000540003
0.000552701
0.000565459
0.000578277
0.000591156
0.000604095
0.000617095
0.000630157
0.000643279
0.000656464
0.00067156
0.00068928
0.000707085
0.000724973
0.000742945
0.000761002
0.000779144
0.000797372
0.000815685
0.000834084
0.000852569
0.000871142
0.000889802
0.000908551
0.000927387
0.000946313
0.000965328
0.000984432
0.00100363
0.00102291
0.00104228
0.00106175
0.00108131
0.00110096
0.0011207
0.00114054
0.00116046
0.00118466
0.00121034
0.00123616
0.00126209
0.00128814
0.00131432
0.00134062
0.00136705
0.00139359
0.00142027
0.00144707
0.00147399
0.00150104
0.00152822
0.00155553
0.00158297
0.00161053
0.00163823
0.00166605
0.00169401
0.0017221
0.00175031
0.00177867
0.00180715
0.00183577
0.00186453
0.00189342
0.00192658
0.00196251
0.00199861
0.00203488
0.00207133
0.00210794
0.00214473
0.00218168
0.0022188
0.00225613
0.00229363
0.00233128
0.00236911
0.00240713
0.00244533
0.0024837
0.00252226
0.002561
0.00259992
0.00263901
0.00267829
0.00271777
0.00275742
0.00279727
0.00283732
0.00287753
0.00291793
0.00296261
0.00301126
0.00306011
0.00310919
0.00315851
0.00320806
0.00325785
0.00330786
0.00335812
0.0034086
0.00345934
0.00351029
0.00356148
0.00361292
0.00366462
0.00371656
0.00376873
0.00382116
0.00387382
0.00392674
0.00397992
0.00403333
0.004087
0.00414091
0.00419507
0.00424952
0.0043042
0.00436623
0.00442992
0.00449391
0.00455819
0.0046228
0.00468769
0.00475287
0.00481838
0.00488419
0.00495033
0.00501677
0.0050835
0.00515057
0.00521796
0.00528566
0.00535365
0.005422
0.00549068
0.00555966
0.00562894
0.00569855
0.00576851
0.00583881
0.00590943
0.00598039
0.00605167
0.0061298
0.00621005
0.00629067
0.00637165
0.00645304
0.00653479
0.00661694
0.00669946
0.00678238
0.00686569
0.00694938
0.00703346
0.00711798
0.0072029
0.00728819
0.00737387
0.00745996
0.00754644
0.00763333
0.00772065
0.0078084
0.00789655
0.00798511
0.00807406
0.00816345
0.00825673
0.00835375
0.00845123
0.00854919
0.0086476
0.00874649
0.0088458
0.00894559
0.00904587
0.00914662
0.00924783
0.00934955
0.00945173
0.00955438
0.00965753
0.00976119
0.00986531
0.00996989
0.010075
0.0101806
0.0102867
0.0103933
0.0105004
0.0106079
0.0107163
0.0108287
0.0109416
0.0110551
0.0111691
0.0112836
0.0113986
0.0115143
0.0116304
0.0117471
0.0118643
0.0119821
0.0121005
0.0122194
0.0123389
0.0124589
0.0125795
0.0127006
0.0128224
0.0129446
0.0130675
0.013191
0.013315
0.0134396
0.0135645
0.0136895
0.0138151
0.0139413
0.0140681
0.0141955
0.0143235
0.0144521
0.0145813
0.0147111
0.0148415
0.0149726
0.0151042
0.0152365
0.0153694
0.0155029
0.0156371
0.0157719
0.0159073
0.0160433
0.01618
0.0163174
0.0164554
0.0165886
0.0167214
0.0168548
0.0169889
0.0171235
0.0172588
0.0173948
0.0175313
0.0176686
0.0178065
0.017945
0.0180841
0.018224
0.0183645
0.0185056
0.0186474
0.0187899
0.0189331
0.0190769
0.0192214
0.0193666
0.0195122
0.0196461
0.0197807
0.0199158
0.0200516
0.0201881
0.0203252
0.0204629
0.0206013
0.0207403
0.02088
0.0210203
0.0211613
0.021303
0.0214454
0.0215884
0.021732
0.0218764
0.0220214
0.0221671
0.0223135
0.0224598
0.0225891
0.022719
0.0228496
0.0229807
0.0231124
0.0232448
0.0233778
0.0235115
0.0236457
0.0237806
0.0239161
0.0240522
0.024189
0.0243265
0.0244646
0.0246033
0.0247427
0.0248827
0.0250234
0.0251648
0.0252866
0.025406
0.0255259
0.0256464
0.0257675
0.0258891
0.0260113
0.0261341
0.0262574
0.0263814
0.0265059
0.026631
0.0267567
0.026883
0.0270099
0.0271374
0.0272654
0.0273941
0.0275234
0.027641
0.027745
0.0278495
0.0279546
0.0280601
0.0281661
0.0282726
0.0283796
0.0284871
0.0285952
0.0287037
0.0288127
0.0289223
0.0290323
0.0291429
0.029254
0.0293657
0.0294778
0.0295905
0.0296816
0.0297674
0.0298536
0.0299402
0.0300272
0.0301147
0.0302025
0.0302907
0.0303794
0.0304685
0.030558
0.0306479
0.0307382
0.030829
0.0309202
0.0310118
0.0311039
0.0311964
0.0312668
0.0313325
0.0313984
0.0314646
0.0315312
0.031598
0.0316652
0.0317327
0.0318005
0.0318686
0.0319371
0.0320058
0.0320749
0.0321443
0.0322141
0.0322842
0.0323546
0.0324126
0.0324575
0.0325027
0.032548
0.0325935
0.0326393
0.0326852
0.0327314
0.0327778
0.0328245
0.0328713
0.0329184
0.0329657
0.0330132
0.0330609
0.0331089
0.033157
0.0331871
0.033212
0.0332371
0.0332623
0.0332876
0.033313
0.0333385
0.0333642
0.03339
0.0334159
0.0334419
0.033468
0.0334943
0.0335207
0.0335472
0.0335738
0.0335871
0.0335934
0.0335998
0.0336061
0.0336125
0.0336189
0.0336254
0.0336319
0.0336384
0.0336449
0.0336515
0.0336581
0.0336647
0.0336714
0.0336781
0.0336834
0.0336729
0.0336625
0.0336519
0.0336414
0.0336308
0.0336201
0.0336094
0.0335986
0.0335878
0.0335769
0.033566
0.033555
0.033544
0.0335329
0.0335212
0.0334962
0.0334711
0.0334459
0.0334206
0.0333951
0.0333696
0.0333439
0.033318
0.0332921
0.0332661
0.0332399
0.0332136
0.0331871
0.0331606
0.0331288
0.0330915
0.0330539
0.0330162
0.0329783
0.0329403
0.032902
0.0328636
0.032825
0.0327862
0.0327472
0.0327081
0.0326687
0.0326292
0.0325865
0.0325391
0.0324914
0.0324436
0.0323955
0.0323472
0.0322986
0.0322499
0.0322009
0.0321516
0.0321022
0.0320525
0.0320026
0.0319524
0.0318984
0.0318429
0.0317871
0.0317312
0.0316749
0.0316184
0.0315616
0.0315046
0.0314472
0.0313896
0.0313318
0.0312736
0.0312152
0.0311552
0.0310937
0.0310319
0.0309699
0.0309075
0.0308449
0.030782
0.0307188
0.0306552
0.0305914
0.0305273
0.0304628
0.0303981
0.0303326
0.0302667
0.0302004
0.0301339
0.030067
0.0299998
0.0299323
0.0298645
0.0297964
0.029728
0.0296591
0.02959
0.0295209
0.0294521
0.029383
0.0293136
0.0292439
0.0291738
0.0291033
0.0290326
0.0289615
0.0288901
0.0288184
0.0287463
0.0286743
0.0286037
0.0285328
0.0284616
0.02839
0.0283181
0.0282459
0.0281733
0.0281004
0.0280271
0.0279534
0.0278795
0.0278065
0.027735
0.0276631
0.0275908
0.0275182
0.0274452
0.0273719
0.0272983
0.0272243
0.02715
0.0270753
0.0270003
0.0269286
0.0268566
0.0267841
0.0267114
0.0266383
0.0265649
0.0264911
0.026417
0.0263425
0.0262677
0.0261925
0.0261207
0.0260489
0.0259767
0.0259042
0.0258313
0.0257581
0.0256846
0.0256108
0.0255365
0.0254619
0.0253875
0.0253165
0.0252452
0.0251735
0.0251016
0.0250293
0.0249566
0.0248836
0.0248102
0.0247365
0.0246625
0.0245907
0.0245205
0.0244499
0.024379
0.0243078
0.0242362
0.0241643
0.024092
0.0240194
0.0239465
0.0238747
0.0238057
0.0237363
0.0236666
0.0235966
0.0235263
0.0234556
0.0233846
0.0233132
0.0232416
0.0231711
0.0231034
0.0230353
0.022967
0.0228983
0.0228293
0.02276
0.0226903
0.0226204
0.02255
0.0224821
0.0224157
0.0223491
0.0222821
0.0222148
0.0221472
0.0220792
0.022011
0.0219424
0.0218739
0.0218091
0.0217441
0.0216787
0.021613
0.0215471
0.0214808
0.0214142
0.0213473
0.0212801
0.021216
0.0211525
0.0210886
0.0210245
0.02096
0.0208953
0.0208302
0.0207649
0.0206992
0.0206362
0.020574
0.0205114
0.0204486
0.0203855
0.0203221
0.0202584
0.0201943
0.02013
0.0200688
0.0200076
0.0199462
0.0198845
0.0198225
0.0197601
0.0196975
0.0196346
0.0195724
0.0195124
0.0194521
0.0193916
0.0193308
0.0192697
0.0192083
0.0191466
0.0190846
0.0190249
0.0189657
0.0189061
0.0188462
0.0187861
0.0187257
0.018665
0.018604
0.0185443
0.0184858
0.018427
0.0183679
0.0183085
0.0182489
0.0181889
0.0181287
0.0180695
0.0180116
0.0179533
0.0178948
0.017836
0.017777
0.0177176
0.017658
0.0175996
0.017542
0.0174843
0.0174262
0.0173679
0.0173093
0.0172504
0.0171912
0.0171339
0.0170767
0.0170193
0.0169616
0.0169037
0.0168454
0.0167869
0.0167287
0.0166721
0.0166152
0.016558
0.0165006
0.0164429
0.0163849
0.0163267
0.0162701
0.0162136
0.0161568
0.0160998
0.0160425
0.0159849
0.0159271
0.0158702
0.015814
0.0157575
0.0157008
0.0156438
0.0155865
0.0155289
0.0154721
0.015416
0.0153597
0.0153032
0.0152463
0.0151892
0.0151319
0.0150752
0.0150193
0.0149632
0.0149067
0.01485
0.0147931
0.0147358
0.0146796
0.0146237
0.0145676
0.0145112
0.0144545
0.0143976
0.0143403
0.0142845
0.0142285
0.0141722
0.0141156
0.0140588
0.0140017
0.0139449
0.0138888
0.0138324
0.0137758
0.0137189
0.0136617
0.0136043
0.0135479
0.0134913
0.0134344
0.0133773
0.0133199
0.0132623
0.0132052
0.0131484
0.0130912
0.0130339
0.0129762
0.0129183
0.0128608
0.0128037
0.0127464
0.0126888
0.012631
0.0125729
0.012515
0.0124578
0.0124003
0.0123425
0.0122845
0.0122262
0.0121681
0.0121107
0.0120529
0.0119949
0.0119366
0.011878
0.0118199
0.0117622
0.0117041
0.0116458
0.0115872
0.0115284
0.0114703
0.0114123
0.011354
0.0112954
0.0112366
0.0111777
0.0111197
0.0110614
0.0110029
0.0109441
0.010885
0.0108265
0.0107682
0.0107096
0.0106508
0.0105917
0.0105325
0.0104742
0.0104155
0.0103566
0.0102974
0.010238
0.0101794
0.0101207
0.0100618
0.0100026
0.00994305
0.00988414
0.00982555
0.00976669
0.00970756
0.00964814
0.00958911
0.00953071
0.00947203
0.00941307
0.00935384
0.00929493
0.00923679
0.00917838
0.0091197
0.00906074
0.00900214
0.00894432
0.00888622
0.00882785
0.0087692
0.00871114
0.00865371
0.00859601
0.00853804
0.00847979
0.00842256
0.00836567
0.00830851
0.00825109
0.00819339
0.00813742
0.0080813
0.00802492
0.00796826
0.00791205
0.00785717
0.00780203
0.00774664
0.00769098
0.00763687
0.00758314
0.00752916
0.00747492
0.00742109
0.00736899
0.00731664
0.00726404
0.0072112
0.0071606
0.00711025
0.00705965
0.00700882
0.00695941
0.0069114
0.00686318
0.00681472
0.00676687
0.0067215
0.00667593
0.00663015
0.00658428
0.00654186
0.00649924
0.00645641
0.00641339
0.00637391
0.0063346
0.0062951
0.00625543
0.00621937
0.00618377
0.00614801
0.00611208
0.00608012
0.00604864
0.00601701
0.00598524
0.0059581
0.00593111
0.00590399
0.0058772
0.00585512
0.00583294
0.00581066
0.00578988
0.00577291
0.00575586
0.00573873
0.00572472
0.00571317
0.00570157
0.00568991
0.00568343
0.00567755
0.00567165
0.00566739
0.00566739
)
;

boundaryField
{
    INLET
    {
        type            cyclic;
    }
    OUTLET
    {
        type            cyclic;
    }
    CENTER
    {
        type            symmetryPlane;
    }
    WALL
    {
        type            calculated;
        value           uniform 2e-10;
    }
    frontAndBackPlanes
    {
        type            empty;
    }
}


// ************************************************************************* //
