/*--------------------------------*- C++ -*----------------------------------*\
| =========                 |                                                 |
| \\      /  F ield         | OpenFOAM: The Open Source CFD Toolbox           |
|  \\    /   O peration     | Version:  v1806                                 |
|   \\  /    A nd           | Web:      www.OpenFOAM.com                      |
|    \\/     M anipulation  |                                                 |
\*---------------------------------------------------------------------------*/
FoamFile
{
    version     2.0;
    format      ascii;
    class       volScalarField;
    location    "10000";
    object      nutL_DNS;
}
// * * * * * * * * * * * * * * * * * * * * * * * * * * * * * * * * * * * * * //

dimensions      [0 2 -1 0 0 0 0];


internalField   nonuniform List<scalar> 
1025
(
1e-12
1e-12
4.14098e-12
7.99201e-12
1.18611e-11
1.57979e-11
4.21328e-11
6.85896e-11
9.51706e-11
1.21877e-10
1.48711e-10
1.75669e-10
2.02777e-10
2.87115e-10
4.01774e-10
5.16955e-10
6.32673e-10
7.4893e-10
8.65749e-10
9.83113e-10
1.10097e-09
1.21949e-09
1.33854e-09
1.45824e-09
1.6727e-09
2.05573e-09
2.44025e-09
2.82671e-09
3.2147e-09
3.60468e-09
3.99652e-09
4.38976e-09
4.78533e-09
5.18281e-09
5.58241e-09
5.98333e-09
6.38585e-09
6.79095e-09
7.19803e-09
7.60946e-09
8.59154e-09
9.67977e-09
1.07722e-08
1.18699e-08
1.29721e-08
1.40804e-08
1.51944e-08
1.63122e-08
1.74369e-08
1.85648e-08
1.96987e-08
2.08395e-08
2.19851e-08
2.31361e-08
2.42908e-08
2.54522e-08
2.66187e-08
2.77905e-08
2.89731e-08
3.05104e-08
3.32725e-08
3.60347e-08
3.88101e-08
4.15973e-08
4.4396e-08
4.72079e-08
5.00328e-08
5.28733e-08
5.57256e-08
5.85959e-08
6.14752e-08
6.43677e-08
6.72746e-08
7.01955e-08
7.31323e-08
7.6078e-08
7.90349e-08
8.20119e-08
8.50095e-08
8.80147e-08
9.10314e-08
9.40588e-08
9.71821e-08
1.03248e-07
1.09605e-07
1.15984e-07
1.22399e-07
1.28839e-07
1.35316e-07
1.41817e-07
1.48349e-07
1.54914e-07
1.61504e-07
1.68126e-07
1.74786e-07
1.81477e-07
1.88192e-07
1.94954e-07
2.01729e-07
2.08541e-07
2.15394e-07
2.22266e-07
2.29186e-07
2.36139e-07
2.43102e-07
2.50104e-07
2.57158e-07
2.64375e-07
2.74419e-07
2.88009e-07
3.01448e-07
3.1495e-07
3.28518e-07
3.42151e-07
3.55871e-07
3.69622e-07
3.83462e-07
3.97356e-07
4.11305e-07
4.25345e-07
4.39441e-07
4.53592e-07
4.67809e-07
4.82079e-07
4.96465e-07
5.10902e-07
5.25373e-07
5.39935e-07
5.54588e-07
5.69303e-07
5.84038e-07
5.98867e-07
6.13803e-07
6.28789e-07
6.44678e-07
6.69265e-07
6.95849e-07
7.22217e-07
7.48751e-07
7.75411e-07
8.02175e-07
8.29072e-07
8.56097e-07
8.83295e-07
9.10561e-07
9.37938e-07
9.6554e-07
9.93162e-07
1.02098e-06
1.04895e-06
1.07694e-06
1.10519e-06
1.13352e-06
1.16191e-06
1.19083e-06
1.2194e-06
1.24799e-06
1.27677e-06
1.30639e-06
1.33619e-06
1.36477e-06
1.39646e-06
1.44167e-06
1.49126e-06
1.53886e-06
1.5883e-06
1.63717e-06
1.68548e-06
1.73558e-06
1.78588e-06
1.83559e-06
1.88466e-06
1.93453e-06
1.98559e-06
2.03705e-06
2.08777e-06
2.13916e-06
2.19032e-06
2.24173e-06
2.29385e-06
2.34621e-06
2.39947e-06
2.45133e-06
2.50393e-06
2.55799e-06
2.61056e-06
2.6639e-06
2.7193e-06
2.77963e-06
2.85934e-06
2.94697e-06
3.03151e-06
3.11588e-06
3.19918e-06
3.28433e-06
3.3699e-06
3.45588e-06
3.54226e-06
3.62836e-06
3.7156e-06
3.80225e-06
3.8895e-06
3.97818e-06
4.06631e-06
4.15562e-06
4.24638e-06
4.33576e-06
4.4236e-06
4.51485e-06
4.60744e-06
4.69846e-06
4.7899e-06
4.8838e-06
4.97638e-06
5.06822e-06
5.18824e-06
5.34629e-06
5.4865e-06
5.62386e-06
5.76321e-06
5.90198e-06
6.03747e-06
6.17881e-06
6.32095e-06
6.45857e-06
6.59941e-06
6.74479e-06
6.88696e-06
7.02856e-06
7.1749e-06
7.32034e-06
7.46386e-06
7.60974e-06
7.75898e-06
7.90416e-06
8.05162e-06
8.2033e-06
8.35264e-06
8.50409e-06
8.65301e-06
8.80586e-06
9.01669e-06
9.28926e-06
9.51681e-06
9.72922e-06
9.94472e-06
1.01538e-05
1.03713e-05
1.05901e-05
1.08018e-05
1.10208e-05
1.12426e-05
1.14614e-05
1.16858e-05
1.19071e-05
1.21247e-05
1.2352e-05
1.25783e-05
1.28057e-05
1.30341e-05
1.32616e-05
1.34929e-05
1.37226e-05
1.39508e-05
1.41847e-05
1.44224e-05
1.47436e-05
1.51831e-05
1.55797e-05
1.5897e-05
1.62105e-05
1.65254e-05
1.68389e-05
1.71535e-05
1.74759e-05
1.78e-05
1.81224e-05
1.84435e-05
1.87662e-05
1.90993e-05
1.9425e-05
1.97555e-05
2.00906e-05
2.04173e-05
2.07555e-05
2.10923e-05
2.14307e-05
2.17707e-05
2.21055e-05
2.24487e-05
2.28286e-05
2.35353e-05
2.43086e-05
2.47475e-05
2.51843e-05
2.56273e-05
2.60724e-05
2.65195e-05
2.69649e-05
2.74163e-05
2.78698e-05
2.83214e-05
2.87838e-05
2.92398e-05
2.96976e-05
3.01667e-05
3.06289e-05
3.1098e-05
3.15694e-05
3.20383e-05
3.2514e-05
3.29876e-05
3.3468e-05
3.39505e-05
3.47863e-05
3.60285e-05
3.69574e-05
3.7554e-05
3.81592e-05
3.87449e-05
3.93446e-05
3.99527e-05
4.05523e-05
4.11605e-05
4.17773e-05
4.23913e-05
4.30022e-05
4.36158e-05
4.42322e-05
4.48702e-05
4.5505e-05
4.61177e-05
4.67522e-05
4.74087e-05
4.80427e-05
4.86732e-05
4.93264e-05
5.10109e-05
5.30516e-05
5.40313e-05
5.47923e-05
5.55796e-05
5.63553e-05
5.71193e-05
5.79023e-05
5.86808e-05
5.94629e-05
6.0273e-05
6.10625e-05
6.18634e-05
6.26684e-05
6.34691e-05
6.42734e-05
6.50894e-05
6.59095e-05
6.67244e-05
6.75604e-05
6.83922e-05
6.92629e-05
7.22201e-05
7.53574e-05
7.63004e-05
7.7268e-05
7.82289e-05
7.91944e-05
8.01646e-05
8.11391e-05
8.21277e-05
8.31213e-05
8.40884e-05
8.5091e-05
8.60868e-05
8.70869e-05
8.81043e-05
8.91038e-05
9.01405e-05
9.11598e-05
9.21712e-05
9.32102e-05
9.43816e-05
9.88086e-05
0.000103421
0.000104584
0.000105742
0.000106877
0.000108068
0.000109237
0.000110401
0.000111597
0.000112799
0.00011399
0.000115199
0.000116414
0.000117605
0.000118803
0.000120034
0.000121301
0.000122545
0.000123747
0.000124997
0.00013069
0.00013749
0.000139601
0.000140942
0.00014229
0.00014368
0.000145076
0.000146456
0.000147822
0.000149215
0.000150652
0.000152073
0.000153465
0.000154875
0.000156293
0.000157742
0.000159197
0.000160636
0.000162094
0.000166967
0.000176159
0.000182101
0.000183683
0.00018521
0.000186791
0.000188365
0.000189932
0.000191521
0.000193088
0.000194722
0.000196318
0.000197905
0.000199616
0.000201236
0.000202848
0.000204466
0.000206109
0.00020781
0.000217604
0.000230433
0.000234619
0.000236367
0.000238062
0.000239865
0.000241597
0.000243377
0.000245144
0.000246919
0.000248703
0.000250514
0.000252335
0.000254101
0.000256001
0.000257805
0.000259618
0.000261544
0.000274544
0.000291457
0.000296434
0.000298396
0.00030021
0.000302112
0.000304067
0.000305974
0.000308003
0.000309964
0.000311799
0.000313821
0.000315799
0.000317762
0.000319813
0.000321761
0.000323799
0.000334392
0.000355506
0.000368311
0.000370292
0.00037228
0.000374379
0.000376487
0.00037853
0.000380584
0.000382646
0.000384771
0.000386905
0.000388898
0.000391127
0.000393318
0.000395417
0.000397526
0.000417379
0.000444733
0.00045289
0.000455123
0.000457238
0.000459392
0.000461556
0.000463732
0.000465945
0.000468072
0.000470308
0.000472455
0.000474768
0.000477063
0.000479144
0.000481518
0.000502208
0.000535328
0.000549201
0.000551298
0.000553531
0.000555778
0.000558063
0.000560365
0.000562385
0.00056477
0.000567134
0.000569346
0.000571637
0.000573939
0.000576376
0.00058161
0.000619078
0.0006574
0.000659672
0.000661829
0.000664159
0.000666501
0.000668725
0.00067096
0.00067317
0.000675627
0.000678132
0.000680281
0.000682444
0.000684978
0.000688993
0.000733105
0.000780623
0.000782959
0.000785097
0.000787283
0.00078948
0.000791978
0.000794238
0.000796464
0.000798786
0.000800909
0.0008035
0.000805931
0.000808008
0.000833443
0.000887883
0.000919062
0.000921
0.000923446
0.000925896
0.000927998
0.000930114
0.000932288
0.000934473
0.000936922
0.000939389
0.000941428
0.000943782
0.000968122
0.0010293
0.00107058
0.00107292
0.00107516
0.00107722
0.00107939
0.00108148
0.00108348
0.00108549
0.00108789
0.00109039
0.00109225
0.00109439
0.00114499
0.00121763
0.00123791
0.00123956
0.00124164
0.00124377
0.00124597
0.00124818
0.00124994
0.00125165
0.00125378
0.00125602
0.00125788
0.00129829
0.00137735
0.00141794
0.00142028
0.0014215
0.00142329
0.00142565
0.00142689
0.0014287
0.00143108
0.00143291
0.00143475
0.00143605
0.00149508
0.00158486
0.0016124
0.00161376
0.00161639
0.00161769
0.00161907
0.00162105
0.00162237
0.00162377
0.00162504
0.00162698
0.00165224
0.00174527
0.00181924
0.00182082
0.00182258
0.00182321
0.00182449
0.0018261
0.00182693
0.00182839
0.00183001
0.00183163
0.00185014
0.00194898
0.00203801
0.00204022
0.00204096
0.00204077
0.00204272
0.00204373
0.00204382
0.00204551
0.00204629
0.00204641
0.00209295
0.00220218
0.00226732
0.00226829
0.00226856
0.00226883
0.00226981
0.00227047
0.00227113
0.00227211
0.00227202
0.00227512
0.00238627
0.00250377
0.00250314
0.00250378
0.00250441
0.0025043
0.00250419
0.00250431
0.00250443
0.00250505
0.00250445
0.00261024
0.00273585
0.00274436
0.00274413
0.00274456
0.00274432
0.00274265
0.00274165
0.00274281
0.00274192
0.00275424
0.00287508
0.00298851
0.00298811
0.00298853
0.00298649
0.00298443
0.00298397
0.00298353
0.0029815
0.00298024
0.00305119
0.00317916
0.00323229
0.00322993
0.0032294
0.00322802
0.00322663
0.00322345
0.00322285
0.00322129
0.00325974
0.00338655
0.00347388
0.00347234
0.00346993
0.00346865
0.00346706
0.00346231
0.00345985
0.00345934
0.003497
0.00362231
0.00371298
0.00370946
0.00370589
0.00370233
0.00369874
0.00369734
0.00369457
0.00369049
0.00375927
0.00388732
0.00394177
0.00393942
0.00393314
0.00392922
0.0039268
0.00392113
0.00391716
0.00392333
0.00404516
0.00416351
0.00415841
0.00415584
0.00414895
0.00414457
0.00414193
0.00413418
0.00412895
0.00422553
0.00434988
0.00436765
0.00436311
0.00435853
0.00435118
0.00434654
0.00434004
0.0043335
0.0044191
0.00453852
0.00456435
0.00455865
0.00455092
0.00454313
0.00453932
0.00453063
0.00452364
0.00462503
0.00473883
0.00474442
0.00473756
0.00472673
0.00472067
0.00471544
0.00470541
0.00472732
0.00483318
0.00491251
0.00490863
0.00490058
0.00488931
0.00487803
0.00487072
0.00486338
0.00494301
0.00504808
0.00505907
0.00505076
0.00504153
0.00503223
0.00502051
0.00501197
0.00505842
0.00515494
0.00519883
0.00518592
0.00517299
0.00516254
0.00515291
0.00514319
0.00519268
0.00525408
0.00530208
0.00531535
0.00529403
0.00527212
0.00525021
0.00526407
0.00531219
0.00535917
0.00540634
0.0054198
0.00539707
0.0053738
0.00535133
0.0053291
0.00541063
0.00549554
0.00547109
0.00548268
0.00545825
0.00546922
0.00544642
0.00542323
0.00554157
0.00558974
0.00552831
0.00553959
0.00555017
0.00548945
0.00550071
0.00558401
0.00563124
0.00560461
0.00557873
0.00558831
0.00559846
0.00557381
0.00558329
0.00566502
0.00567523
0.00564879
0.00565901
0.00563179
0.00560375
0.00564927
0.0056961
0.00574158
0.0057133
0.00568538
0.00569374
0.00562904
0.00567252
0.00575533
0.00576399
0.00573376
0.00570493
0.00571337
0.00568375
0.00572642
0.00577127
0.0057784
0.00578489
0.00571714
0.00568651
0.00569322
0.00577324
0.00581622
0.00578396
0.00575264
0.00572127
0.00572605
0.00573056
0.00577114
0.00581272
0.00578056
0.00574765
0.00571499
0.00568292
0.00575811
0.00579809
0.00576398
0.00576629
0.00573209
0.0056984
0.00573608
0.00577399
0.00573953
0.00574078
0.00574197
0.00567071
0.00567024
0.00574209
0.005743
0.00570677
0.00570552
0.00566914
0.00566816
0.00573762
0.00573612
0.00569871
0.00566037
0.00562251
0.00565521
0.00568803
0.00568437
0.00567976
0.0056401
0.00560143
0.00563192
0.00566136
0.00565561
0.00561544
0.00557464
0.00556814
0.00559614
0.00562364
0.00561557
0.0056081
0.0055654
0.0055221
0.00554741
0.00560761
0.0055628
0.00551803
0.00550773
0.00549657
0.00555403
0.00554242
0.0054955
0.00544827
0.00543493
0.00548983
0.00547595
0.00546115
0.00544611
0.00536335
0.00538132
0.0054675
0.00541543
0.00536387
0.00534662
0.00532754
0.00537603
0.00535667
0.00533585
0.00528204
0.00526125
0.00530654
0.00528358
0.00526079
0.00523731
0.00521275
0.0052213
0.00522986
0.00520331
0.00514271
0.00514871
0.00518835
0.0051594
0.00513005
0.00509958
0.00506834
0.00510375
0.00510532
0.0050377
0.00500377
0.00503634
0.005069
0.00503176
0.00499399
0.0049221
0.00495057
0.00501396
0.00493698
0.00489492
0.00485189
0.00491009
0.00493552
0.00485289
0.00480485
0.00479055
0.0048826
0.00486651
0.00474144
0.00468755
0.00477376
0.00482743
0.00473122
0.00463486
0.00468161
0.00476839
0.00470201
0.00459673
0.00460228
0.00468565
0.00469143
0.00457518
0.00449768
0.00457554
0.00465784
0.0045707
0.00444158
0.00451669
0.00459669
0.00449746
0.00439681
0.0044693
0.00459614
0.00448066
0.00431623
0.00443319
0.00456381
0.00442771
0.00428912
0.00435546
0.00448679
0.0043834
0.00421661
0.00433973
0.00455238
0.00434857
0.0041409
0.00434337
0.00450379
0.00424191
0.0041349
0.00437952
0.00446329
0.00410326
0.00415227
0.00448926
0.00427399
0.00386769
0.00423436
0.00488562
0.00410052
0.00343912
0.00590653
1e-12
)
;

boundaryField
{
    INLET
    {
        type            cyclic;
    }
    OUTLET
    {
        type            cyclic;
    }
    CENTER
    {
        type            symmetryPlane;
    }
    WALL
    {
        type            fixedValue;
        value           uniform 0;
    }
    frontAndBackPlanes
    {
        type            empty;
    }
}


// ************************************************************************* //
