/*--------------------------------*- C++ -*----------------------------------*\
| =========                 |                                                 |
| \\      /  F ield         | OpenFOAM: The Open Source CFD Toolbox           |
|  \\    /   O peration     | Version:  v1806                                 |
|   \\  /    A nd           | Web:      www.OpenFOAM.com                      |
|    \\/     M anipulation  |                                                 |
\*---------------------------------------------------------------------------*/
FoamFile
{
    version     2.0;
    format      ascii;
    class       volVectorField;
    location    "10000";
    object      U_DNS;
}
// * * * * * * * * * * * * * * * * * * * * * * * * * * * * * * * * * * * * * //

dimensions      [0 1 -1 0 0 0 0];


internalField   nonuniform List<vector> 
1025
(
(0.000223549 0 2.87885e-08)
(0.000671699 0 8.65011e-08)
(0.00112191 0 1.44486e-07)
(0.00157424 0 2.02743e-07)
(0.0020287 0 2.61274e-07)
(0.0024853 0 3.20081e-07)
(0.00294395 0 3.79166e-07)
(0.00340475 0 4.3853e-07)
(0.00386773 0 4.98172e-07)
(0.00433288 0 5.58095e-07)
(0.00480022 0 6.183e-07)
(0.00526976 0 6.7879e-07)
(0.00574151 0 7.39563e-07)
(0.00621537 0 8.00625e-07)
(0.00669139 0 8.61976e-07)
(0.00716965 0 9.23616e-07)
(0.00765015 0 9.85545e-07)
(0.00813293 0 1.04777e-06)
(0.00861798 0 1.11028e-06)
(0.00910531 0 1.17309e-06)
(0.00959493 0 1.2362e-06)
(0.0100869 0 1.2996e-06)
(0.0105811 0 1.3633e-06)
(0.0110777 0 1.4273e-06)
(0.0115765 0 1.4916e-06)
(0.0120775 0 1.55622e-06)
(0.0125808 0 1.62115e-06)
(0.0130865 0 1.68637e-06)
(0.0135945 0 1.75191e-06)
(0.014105 0 1.81775e-06)
(0.0146178 0 1.8839e-06)
(0.0151331 0 1.95036e-06)
(0.0156508 0 2.01714e-06)
(0.016171 0 2.08424e-06)
(0.0166936 0 2.15165e-06)
(0.0172186 0 2.21937e-06)
(0.0177461 0 2.28741e-06)
(0.0182761 0 2.35577e-06)
(0.0188086 0 2.42446e-06)
(0.0193436 0 2.49347e-06)
(0.0198807 0 2.56283e-06)
(0.0204203 0 2.63254e-06)
(0.0209624 0 2.70257e-06)
(0.0215071 0 2.77292e-06)
(0.0220543 0 2.84361e-06)
(0.0226042 0 2.91464e-06)
(0.0231566 0 2.986e-06)
(0.0237116 0 3.05769e-06)
(0.0242692 0 3.12972e-06)
(0.0248294 0 3.20209e-06)
(0.0253924 0 3.2748e-06)
(0.0259579 0 3.34785e-06)
(0.0265261 0 3.42125e-06)
(0.0270969 0 3.49499e-06)
(0.0276704 0 3.56907e-06)
(0.0282467 0 3.64351e-06)
(0.0288257 0 3.71831e-06)
(0.0294074 0 3.79345e-06)
(0.0299918 0 3.86894e-06)
(0.0305788 0 3.94481e-06)
(0.0311681 0 4.02112e-06)
(0.0317601 0 4.09779e-06)
(0.0323549 0 4.17483e-06)
(0.0329524 0 4.25222e-06)
(0.0335528 0 4.32998e-06)
(0.034156 0 4.40811e-06)
(0.0347621 0 4.4866e-06)
(0.035371 0 4.56546e-06)
(0.0359828 0 4.64469e-06)
(0.0365975 0 4.7243e-06)
(0.037215 0 4.80429e-06)
(0.0378355 0 4.88464e-06)
(0.0384588 0 4.96538e-06)
(0.0390852 0 5.0465e-06)
(0.0397144 0 5.12799e-06)
(0.0403466 0 5.20987e-06)
(0.0409818 0 5.29214e-06)
(0.0416201 0 5.3748e-06)
(0.0422613 0 5.45784e-06)
(0.0429055 0 5.54128e-06)
(0.0435527 0 5.62511e-06)
(0.044203 0 5.70933e-06)
(0.0448564 0 5.79395e-06)
(0.0455118 0 5.87919e-06)
(0.0461702 0 5.96486e-06)
(0.0468317 0 6.05092e-06)
(0.0474963 0 6.1374e-06)
(0.048164 0 6.22428e-06)
(0.0488349 0 6.31157e-06)
(0.0495089 0 6.39927e-06)
(0.0501861 0 6.48739e-06)
(0.0508664 0 6.57591e-06)
(0.05155 0 6.66485e-06)
(0.0522368 0 6.75422e-06)
(0.0529269 0 6.84401e-06)
(0.0536202 0 6.93422e-06)
(0.0543168 0 7.02485e-06)
(0.0550166 0 7.11591e-06)
(0.0557197 0 7.2074e-06)
(0.0564262 0 7.29932e-06)
(0.0571359 0 7.39167e-06)
(0.057849 0 7.48445e-06)
(0.0585655 0 7.57768e-06)
(0.0592853 0 7.67134e-06)
(0.0600085 0 7.76544e-06)
(0.0607352 0 7.85999e-06)
(0.0614652 0 7.95497e-06)
(0.0621987 0 8.05042e-06)
(0.0629349 0 8.14652e-06)
(0.0636735 0 8.24337e-06)
(0.0644155 0 8.34068e-06)
(0.0651611 0 8.43844e-06)
(0.0659101 0 8.53666e-06)
(0.0666628 0 8.63535e-06)
(0.0674189 0 8.7345e-06)
(0.0681786 0 8.83412e-06)
(0.0689419 0 8.9342e-06)
(0.0697087 0 9.03476e-06)
(0.0704792 0 9.13579e-06)
(0.0712533 0 9.2373e-06)
(0.072031 0 9.33928e-06)
(0.0728124 0 9.44174e-06)
(0.0735975 0 9.54469e-06)
(0.0743863 0 9.64812e-06)
(0.0751789 0 9.75204e-06)
(0.0759751 0 9.85646e-06)
(0.0767751 0 9.96135e-06)
(0.0775788 0 1.00667e-05)
(0.0783864 0 1.01726e-05)
(0.0791977 0 1.0279e-05)
(0.0800128 0 1.03859e-05)
(0.0808318 0 1.04933e-05)
(0.0816547 0 1.06012e-05)
(0.0824814 0 1.07096e-05)
(0.083312 0 1.08185e-05)
(0.0841443 0 1.09286e-05)
(0.0849797 0 1.10395e-05)
(0.0858191 0 1.11509e-05)
(0.0866625 0 1.12628e-05)
(0.0875098 0 1.13753e-05)
(0.0883611 0 1.14882e-05)
(0.0892164 0 1.16018e-05)
(0.0900758 0 1.17158e-05)
(0.0909392 0 1.18304e-05)
(0.0918066 0 1.19455e-05)
(0.0926782 0 1.20612e-05)
(0.0935538 0 1.21774e-05)
(0.0944335 0 1.22941e-05)
(0.0953175 0 1.24114e-05)
(0.0962055 0 1.25293e-05)
(0.0970977 0 1.26477e-05)
(0.0979942 0 1.27666e-05)
(0.0988948 0 1.28862e-05)
(0.0997998 0 1.30063e-05)
(0.100709 0 1.31269e-05)
(0.101622 0 1.32481e-05)
(0.10254 0 1.33699e-05)
(0.103462 0 1.34923e-05)
(0.104389 0 1.36152e-05)
(0.105319 0 1.37387e-05)
(0.106254 0 1.38628e-05)
(0.107194 0 1.39875e-05)
(0.108135 0 1.41137e-05)
(0.109078 0 1.42411e-05)
(0.110026 0 1.4369e-05)
(0.110979 0 1.44976e-05)
(0.111935 0 1.46267e-05)
(0.112897 0 1.47565e-05)
(0.113863 0 1.48868e-05)
(0.114833 0 1.50178e-05)
(0.115807 0 1.51494e-05)
(0.116787 0 1.52816e-05)
(0.117772 0 1.54146e-05)
(0.118761 0 1.5548e-05)
(0.119754 0 1.56821e-05)
(0.120752 0 1.58168e-05)
(0.121755 0 1.59522e-05)
(0.122762 0 1.60882e-05)
(0.123775 0 1.62248e-05)
(0.124792 0 1.63621e-05)
(0.125814 0 1.65001e-05)
(0.12684 0 1.66386e-05)
(0.127871 0 1.67778e-05)
(0.128908 0 1.69177e-05)
(0.129949 0 1.70582e-05)
(0.130995 0 1.71995e-05)
(0.132047 0 1.73414e-05)
(0.133103 0 1.74839e-05)
(0.134163 0 1.76271e-05)
(0.135224 0 1.7772e-05)
(0.136287 0 1.79187e-05)
(0.137355 0 1.8066e-05)
(0.138427 0 1.82141e-05)
(0.139505 0 1.83628e-05)
(0.140588 0 1.85122e-05)
(0.141676 0 1.86623e-05)
(0.142769 0 1.88132e-05)
(0.143867 0 1.89647e-05)
(0.14497 0 1.9117e-05)
(0.146079 0 1.927e-05)
(0.147192 0 1.94236e-05)
(0.148311 0 1.9578e-05)
(0.149435 0 1.97331e-05)
(0.150565 0 1.9889e-05)
(0.1517 0 2.00457e-05)
(0.15284 0 2.0203e-05)
(0.153985 0 2.03611e-05)
(0.155136 0 2.05199e-05)
(0.156293 0 2.06795e-05)
(0.157455 0 2.08399e-05)
(0.158622 0 2.10009e-05)
(0.159795 0 2.11628e-05)
(0.160973 0 2.13254e-05)
(0.162156 0 2.14887e-05)
(0.163346 0 2.16529e-05)
(0.164541 0 2.18178e-05)
(0.165729 0 2.19856e-05)
(0.166922 0 2.21546e-05)
(0.16812 0 2.23245e-05)
(0.169324 0 2.24951e-05)
(0.170533 0 2.26667e-05)
(0.171748 0 2.28389e-05)
(0.172969 0 2.30119e-05)
(0.174195 0 2.31858e-05)
(0.175427 0 2.33605e-05)
(0.176666 0 2.35361e-05)
(0.17791 0 2.37125e-05)
(0.179159 0 2.38896e-05)
(0.180415 0 2.40676e-05)
(0.181677 0 2.42465e-05)
(0.182944 0 2.44262e-05)
(0.184217 0 2.46067e-05)
(0.185497 0 2.47882e-05)
(0.186783 0 2.49705e-05)
(0.188074 0 2.51536e-05)
(0.189372 0 2.53375e-05)
(0.190675 0 2.55223e-05)
(0.191985 0 2.5708e-05)
(0.193301 0 2.58946e-05)
(0.194623 0 2.60821e-05)
(0.195952 0 2.62704e-05)
(0.197286 0 2.64597e-05)
(0.19861 0 2.66522e-05)
(0.199935 0 2.68463e-05)
(0.201267 0 2.70413e-05)
(0.202604 0 2.72372e-05)
(0.203948 0 2.74341e-05)
(0.205299 0 2.76319e-05)
(0.206655 0 2.78306e-05)
(0.208018 0 2.80302e-05)
(0.209388 0 2.82308e-05)
(0.210764 0 2.84324e-05)
(0.212146 0 2.86348e-05)
(0.213535 0 2.88382e-05)
(0.21493 0 2.90427e-05)
(0.216333 0 2.92481e-05)
(0.217742 0 2.94544e-05)
(0.219157 0 2.96617e-05)
(0.220579 0 2.98699e-05)
(0.222007 0 3.00791e-05)
(0.223442 0 3.02893e-05)
(0.224884 0 3.05005e-05)
(0.226333 0 3.07128e-05)
(0.227789 0 3.09261e-05)
(0.229252 0 3.11403e-05)
(0.230721 0 3.13555e-05)
(0.232197 0 3.15717e-05)
(0.233663 0 3.17911e-05)
(0.23512 0 3.20135e-05)
(0.236583 0 3.2237e-05)
(0.238053 0 3.24616e-05)
(0.23953 0 3.26873e-05)
(0.241014 0 3.2914e-05)
(0.242505 0 3.31417e-05)
(0.244003 0 3.33704e-05)
(0.245508 0 3.36004e-05)
(0.24702 0 3.38313e-05)
(0.248539 0 3.40634e-05)
(0.250066 0 3.42966e-05)
(0.2516 0 3.45309e-05)
(0.25314 0 3.47662e-05)
(0.254689 0 3.50027e-05)
(0.256244 0 3.52404e-05)
(0.257807 0 3.54791e-05)
(0.259377 0 3.57189e-05)
(0.260954 0 3.59598e-05)
(0.262539 0 3.62019e-05)
(0.264131 0 3.64451e-05)
(0.265731 0 3.66895e-05)
(0.267339 0 3.6935e-05)
(0.268954 0 3.71817e-05)
(0.270572 0 3.74301e-05)
(0.272153 0 3.76865e-05)
(0.273741 0 3.79442e-05)
(0.275337 0 3.82031e-05)
(0.27694 0 3.84632e-05)
(0.278551 0 3.87245e-05)
(0.280169 0 3.8987e-05)
(0.281795 0 3.92508e-05)
(0.283429 0 3.95159e-05)
(0.28507 0 3.97821e-05)
(0.286719 0 4.00496e-05)
(0.288376 0 4.03184e-05)
(0.29004 0 4.05885e-05)
(0.291713 0 4.08598e-05)
(0.293393 0 4.11324e-05)
(0.295081 0 4.14062e-05)
(0.296777 0 4.16814e-05)
(0.298481 0 4.19579e-05)
(0.300193 0 4.22356e-05)
(0.301913 0 4.25146e-05)
(0.303641 0 4.2795e-05)
(0.305378 0 4.30768e-05)
(0.307122 0 4.33598e-05)
(0.308875 0 4.36441e-05)
(0.3106 0 4.39377e-05)
(0.3123 0 4.42398e-05)
(0.314009 0 4.45435e-05)
(0.315725 0 4.48487e-05)
(0.317449 0 4.51552e-05)
(0.319182 0 4.54632e-05)
(0.320922 0 4.57726e-05)
(0.322671 0 4.60835e-05)
(0.324428 0 4.63959e-05)
(0.326193 0 4.67097e-05)
(0.327966 0 4.70249e-05)
(0.329748 0 4.73418e-05)
(0.331538 0 4.766e-05)
(0.333337 0 4.79797e-05)
(0.335145 0 4.83011e-05)
(0.33696 0 4.86239e-05)
(0.338784 0 4.89482e-05)
(0.340618 0 4.92741e-05)
(0.342459 0 4.96014e-05)
(0.344308 0 4.99302e-05)
(0.346167 0 5.02607e-05)
(0.348035 0 5.05927e-05)
(0.349911 0 5.09263e-05)
(0.35172 0 5.12862e-05)
(0.353522 0 5.16528e-05)
(0.355333 0 5.20211e-05)
(0.357152 0 5.23911e-05)
(0.358979 0 5.27628e-05)
(0.360815 0 5.31363e-05)
(0.36266 0 5.35115e-05)
(0.364513 0 5.38885e-05)
(0.366376 0 5.42673e-05)
(0.368247 0 5.46478e-05)
(0.370126 0 5.50302e-05)
(0.372015 0 5.54143e-05)
(0.373912 0 5.58003e-05)
(0.375819 0 5.61882e-05)
(0.377734 0 5.65777e-05)
(0.379659 0 5.69692e-05)
(0.381592 0 5.73624e-05)
(0.383535 0 5.77576e-05)
(0.385487 0 5.81546e-05)
(0.387448 0 5.85535e-05)
(0.389418 0 5.89543e-05)
(0.391395 0 5.93579e-05)
(0.393267 0 5.98144e-05)
(0.395149 0 6.0273e-05)
(0.397039 0 6.07337e-05)
(0.398938 0 6.11966e-05)
(0.400846 0 6.16617e-05)
(0.402763 0 6.2129e-05)
(0.404689 0 6.25984e-05)
(0.406624 0 6.30701e-05)
(0.408568 0 6.35441e-05)
(0.410521 0 6.40202e-05)
(0.412484 0 6.44985e-05)
(0.414455 0 6.49792e-05)
(0.416437 0 6.54621e-05)
(0.418427 0 6.59474e-05)
(0.420427 0 6.64348e-05)
(0.422436 0 6.69245e-05)
(0.424454 0 6.74165e-05)
(0.426482 0 6.79109e-05)
(0.42852 0 6.84076e-05)
(0.430567 0 6.89066e-05)
(0.432618 0 6.94114e-05)
(0.434543 0 6.9995e-05)
(0.436478 0 7.05814e-05)
(0.438421 0 7.11706e-05)
(0.440374 0 7.17625e-05)
(0.442336 0 7.23571e-05)
(0.444307 0 7.29547e-05)
(0.446288 0 7.3555e-05)
(0.448278 0 7.41582e-05)
(0.450277 0 7.47641e-05)
(0.452285 0 7.53728e-05)
(0.454303 0 7.59845e-05)
(0.45633 0 7.6599e-05)
(0.458367 0 7.72165e-05)
(0.460414 0 7.78369e-05)
(0.462471 0 7.84602e-05)
(0.464537 0 7.90865e-05)
(0.466612 0 7.97156e-05)
(0.468697 0 8.03477e-05)
(0.470793 0 8.09828e-05)
(0.472898 0 8.16209e-05)
(0.47487 0 8.23562e-05)
(0.47683 0 8.31089e-05)
(0.478799 0 8.38651e-05)
(0.480778 0 8.46248e-05)
(0.482766 0 8.53881e-05)
(0.484763 0 8.6155e-05)
(0.486769 0 8.69254e-05)
(0.488785 0 8.76996e-05)
(0.490811 0 8.84774e-05)
(0.492846 0 8.92588e-05)
(0.49489 0 9.00439e-05)
(0.496944 0 9.08327e-05)
(0.499008 0 9.16253e-05)
(0.501082 0 9.24216e-05)
(0.503166 0 9.32217e-05)
(0.505259 0 9.40255e-05)
(0.507362 0 9.4833e-05)
(0.509475 0 9.56443e-05)
(0.511598 0 9.64595e-05)
(0.513644 0 9.73385e-05)
(0.515603 0 9.82898e-05)
(0.51757 0 9.92457e-05)
(0.519547 0 0.000100206)
(0.521533 0 0.000101171)
(0.523528 0 0.00010214)
(0.525533 0 0.000103114)
(0.527547 0 0.000104093)
(0.529571 0 0.000105076)
(0.531605 0 0.000106064)
(0.533647 0 0.000107056)
(0.5357 0 0.000108053)
(0.537762 0 0.000109055)
(0.539833 0 0.000110061)
(0.541915 0 0.000111073)
(0.544006 0 0.000112089)
(0.546108 0 0.00011311)
(0.548219 0 0.000114135)
(0.55034 0 0.000115165)
(0.552312 0 0.000116305)
(0.554253 0 0.000117477)
(0.556202 0 0.000118654)
(0.558161 0 0.000119837)
(0.560129 0 0.000121025)
(0.562106 0 0.000122219)
(0.564093 0 0.000123418)
(0.566088 0 0.000124623)
(0.568094 0 0.000125834)
(0.570108 0 0.000127051)
(0.572133 0 0.000128273)
(0.574166 0 0.000129501)
(0.57621 0 0.000130735)
(0.578263 0 0.000131975)
(0.580325 0 0.00013322)
(0.582398 0 0.000134471)
(0.58448 0 0.000135729)
(0.586571 0 0.000136992)
(0.588502 0 0.00013835)
(0.590403 0 0.000139736)
(0.592312 0 0.000141129)
(0.59423 0 0.000142527)
(0.596158 0 0.000143933)
(0.598094 0 0.000145345)
(0.60004 0 0.000146764)
(0.601995 0 0.000148189)
(0.603958 0 0.000149621)
(0.605931 0 0.00015106)
(0.607914 0 0.000152506)
(0.609905 0 0.000153958)
(0.611907 0 0.000155418)
(0.613917 0 0.000156884)
(0.615937 0 0.000158357)
(0.617967 0 0.000159837)
(0.620006 0 0.000161324)
(0.62195 0 0.00016285)
(0.623792 0 0.000164418)
(0.625642 0 0.000165992)
(0.627502 0 0.000167575)
(0.62937 0 0.000169164)
(0.631247 0 0.000170762)
(0.633132 0 0.000172366)
(0.635027 0 0.000173979)
(0.63693 0 0.000175598)
(0.638843 0 0.000177226)
(0.640764 0 0.000178861)
(0.642695 0 0.000180504)
(0.644635 0 0.000182155)
(0.646583 0 0.000183813)
(0.648541 0 0.000185479)
(0.650508 0 0.000187153)
(0.652485 0 0.000188835)
(0.654302 0 0.00019053)
(0.65608 0 0.000192235)
(0.657866 0 0.000193948)
(0.65966 0 0.000195669)
(0.661463 0 0.000197398)
(0.663274 0 0.000199136)
(0.665094 0 0.000200881)
(0.666922 0 0.000202634)
(0.668759 0 0.000204396)
(0.670605 0 0.000206166)
(0.672459 0 0.000207945)
(0.674323 0 0.000209732)
(0.676194 0 0.000211527)
(0.678075 0 0.000213331)
(0.679965 0 0.000215143)
(0.681863 0 0.000216964)
(0.683631 0 0.000218758)
(0.685333 0 0.000220541)
(0.687043 0 0.000222334)
(0.688762 0 0.000224134)
(0.690488 0 0.000225943)
(0.692223 0 0.000227761)
(0.693965 0 0.000229587)
(0.695716 0 0.000231422)
(0.697476 0 0.000233265)
(0.699243 0 0.000235117)
(0.701019 0 0.000236978)
(0.702803 0 0.000238848)
(0.704596 0 0.000240726)
(0.706397 0 0.000242613)
(0.708206 0 0.000244509)
(0.710006 0 0.000246405)
(0.711626 0 0.000248217)
(0.713253 0 0.000250037)
(0.714888 0 0.000251866)
(0.716531 0 0.000253704)
(0.718181 0 0.00025555)
(0.719839 0 0.000257405)
(0.721505 0 0.000259268)
(0.723179 0 0.00026114)
(0.724861 0 0.000263021)
(0.72655 0 0.000264911)
(0.728247 0 0.00026681)
(0.729953 0 0.000268718)
(0.731667 0 0.000270635)
(0.733388 0 0.00027256)
(0.73511 0 0.00027449)
(0.73665 0 0.000276308)
(0.738197 0 0.000278135)
(0.739751 0 0.00027997)
(0.741313 0 0.000281813)
(0.742882 0 0.000283665)
(0.744459 0 0.000285526)
(0.746042 0 0.000287396)
(0.747634 0 0.000289275)
(0.749232 0 0.000291162)
(0.750839 0 0.000293058)
(0.752453 0 0.000294963)
(0.754074 0 0.000296878)
(0.755703 0 0.000298801)
(0.75734 0 0.000300733)
(0.758893 0 0.000302614)
(0.760357 0 0.000304441)
(0.761829 0 0.000306277)
(0.763308 0 0.000308123)
(0.764792 0 0.000309975)
(0.766283 0 0.000311836)
(0.767783 0 0.000313707)
(0.76929 0 0.000315588)
(0.770803 0 0.000317475)
(0.772323 0 0.000319371)
(0.773851 0 0.000321278)
(0.775386 0 0.000323194)
(0.776929 0 0.000325119)
(0.778478 0 0.000327052)
(0.779963 0 0.000328951)
(0.781351 0 0.000330795)
(0.782746 0 0.00033265)
(0.784146 0 0.000334512)
(0.785552 0 0.000336382)
(0.786966 0 0.000338262)
(0.788387 0 0.000340152)
(0.789815 0 0.00034205)
(0.791249 0 0.000343957)
(0.79269 0 0.000345872)
(0.794136 0 0.000347795)
(0.79559 0 0.000349729)
(0.797052 0 0.000351672)
(0.79852 0 0.000353624)
(0.79987 0 0.000355507)
(0.801187 0 0.000357374)
(0.802511 0 0.00035925)
(0.803841 0 0.000361135)
(0.805176 0 0.000363027)
(0.806518 0 0.000364929)
(0.807866 0 0.000366841)
(0.809221 0 0.000368762)
(0.810583 0 0.000370693)
(0.811951 0 0.000372631)
(0.813324 0 0.000374578)
(0.814705 0 0.000376535)
(0.816093 0 0.000378502)
(0.817404 0 0.000380407)
(0.818652 0 0.00038226)
(0.819905 0 0.000384122)
(0.821164 0 0.000385994)
(0.82243 0 0.000387874)
(0.8237 0 0.000389761)
(0.824976 0 0.000391657)
(0.82626 0 0.000393564)
(0.827549 0 0.00039548)
(0.828844 0 0.000397404)
(0.830145 0 0.000399338)
(0.831452 0 0.00040128)
(0.832767 0 0.000403233)
(0.833986 0 0.000405061)
(0.835171 0 0.000406845)
(0.836362 0 0.000408636)
(0.837558 0 0.000410436)
(0.838759 0 0.000412245)
(0.839967 0 0.000414061)
(0.841179 0 0.000415886)
(0.842398 0 0.000417721)
(0.843622 0 0.000419563)
(0.844852 0 0.000421414)
(0.846089 0 0.000423275)
(0.847331 0 0.000425144)
(0.848543 0 0.000426952)
(0.849667 0 0.000428581)
(0.850797 0 0.000430217)
(0.851931 0 0.000431861)
(0.85307 0 0.000433511)
(0.854216 0 0.000435171)
(0.855367 0 0.000436839)
(0.856523 0 0.000438514)
(0.857685 0 0.000440196)
(0.858852 0 0.000441887)
(0.860024 0 0.000443585)
(0.861201 0 0.000445291)
(0.862363 0 0.000446944)
(0.863434 0 0.000448327)
(0.864509 0 0.000449715)
(0.865588 0 0.00045111)
(0.866674 0 0.000452512)
(0.867765 0 0.000453921)
(0.86886 0 0.000455336)
(0.869961 0 0.000456757)
(0.871067 0 0.000458186)
(0.872178 0 0.000459621)
(0.873295 0 0.000461063)
(0.874417 0 0.000462512)
(0.875495 0 0.000463777)
(0.876518 0 0.000464808)
(0.877546 0 0.000465844)
(0.878579 0 0.000466886)
(0.879617 0 0.000467932)
(0.88066 0 0.000468983)
(0.881708 0 0.000470039)
(0.88276 0 0.0004711)
(0.883817 0 0.000472165)
(0.884879 0 0.000473236)
(0.885947 0 0.000474312)
(0.887017 0 0.000475381)
(0.887995 0 0.000475949)
(0.888978 0 0.000476521)
(0.889966 0 0.000477095)
(0.890958 0 0.000477672)
(0.891955 0 0.000478252)
(0.892956 0 0.000478834)
(0.893962 0 0.000479419)
(0.894973 0 0.000480007)
(0.895989 0 0.000480597)
(0.897009 0 0.000481191)
(0.898035 0 0.000481787)
(0.898981 0 0.000481846)
(0.899925 0 0.000481859)
(0.900874 0 0.000481872)
(0.901827 0 0.000481885)
(0.902784 0 0.000481897)
(0.903746 0 0.00048191)
(0.904713 0 0.000481923)
(0.905684 0 0.000481936)
(0.906659 0 0.000481949)
(0.90764 0 0.000481963)
(0.908615 0 0.000481907)
(0.909522 0 0.000481304)
(0.910434 0 0.000480697)
(0.911349 0 0.000480087)
(0.912268 0 0.000479475)
(0.913192 0 0.00047886)
(0.914121 0 0.000478242)
(0.915054 0 0.000477621)
(0.915991 0 0.000476997)
(0.916933 0 0.00047637)
(0.917879 0 0.00047574)
(0.918785 0 0.000474756)
(0.919664 0 0.000473519)
(0.920548 0 0.000472277)
(0.921436 0 0.000471027)
(0.922328 0 0.000469772)
(0.923224 0 0.000468512)
(0.924124 0 0.000467245)
(0.925029 0 0.000465973)
(0.925937 0 0.000464694)
(0.926851 0 0.00046341)
(0.927745 0 0.000461932)
(0.928598 0 0.000460071)
(0.929455 0 0.000458201)
(0.930316 0 0.000456322)
(0.931181 0 0.000454435)
(0.932049 0 0.00045254)
(0.932922 0 0.000450634)
(0.9338 0 0.000448719)
(0.934681 0 0.000446796)
(0.935566 0 0.000444864)
(0.936435 0 0.000442741)
(0.937266 0 0.000440253)
(0.9381 0 0.000437752)
(0.938939 0 0.000435241)
(0.939781 0 0.000432717)
(0.940628 0 0.000430182)
(0.941478 0 0.000427635)
(0.942332 0 0.000425076)
(0.94319 0 0.000422504)
(0.944053 0 0.00041992)
(0.944886 0 0.000417033)
(0.945699 0 0.000413934)
(0.946515 0 0.00041082)
(0.947335 0 0.000407692)
(0.94816 0 0.000404548)
(0.948988 0 0.000401388)
(0.94982 0 0.000398215)
(0.950656 0 0.000395028)
(0.951496 0 0.000391824)
(0.952336 0 0.000388572)
(0.953131 0 0.000384952)
(0.95393 0 0.000381314)
(0.954733 0 0.000377658)
(0.955539 0 0.000373985)
(0.95635 0 0.000370296)
(0.957163 0 0.00036659)
(0.957981 0 0.000362865)
(0.958803 0 0.000359124)
(0.959629 0 0.000355363)
(0.960419 0 0.000351375)
(0.961204 0 0.000347318)
(0.961993 0 0.000343241)
(0.962785 0 0.000339145)
(0.963581 0 0.000335029)
(0.964381 0 0.000330896)
(0.965184 0 0.000326742)
(0.965992 0 0.000322568)
(0.966803 0 0.000318374)
(0.967585 0 0.000314052)
(0.968359 0 0.000309674)
(0.969137 0 0.000305276)
(0.969918 0 0.000300857)
(0.970704 0 0.000296416)
(0.971493 0 0.000291954)
(0.972285 0 0.000287473)
(0.973082 0 0.00028297)
(0.973882 0 0.000278444)
(0.974649 0 0.000273858)
(0.975416 0 0.000269247)
(0.976186 0 0.000264613)
(0.97696 0 0.000259959)
(0.977738 0 0.000255283)
(0.978519 0 0.000250584)
(0.979304 0 0.000245861)
(0.980093 0 0.000241118)
(0.980875 0 0.00023635)
(0.981634 0 0.000231546)
(0.982396 0 0.000226717)
(0.983161 0 0.000221866)
(0.98393 0 0.000216992)
(0.984703 0 0.000212096)
(0.98548 0 0.000207176)
(0.98626 0 0.000202233)
(0.987044 0 0.000197266)
(0.987803 0 0.00019223)
(0.988559 0 0.000187158)
(0.989319 0 0.000182062)
(0.990082 0 0.000176941)
(0.990849 0 0.000171797)
(0.991619 0 0.000166628)
(0.992394 0 0.000161435)
(0.993171 0 0.000156217)
(0.993936 0 0.000150932)
(0.994688 0 0.000145588)
(0.995444 0 0.00014022)
(0.996204 0 0.000134824)
(0.996968 0 0.000129404)
(0.997735 0 0.000123958)
(0.998506 0 0.000118485)
(0.99928 0 0.000112987)
(1.00004 0 0.000107444)
(1.0008 0 0.00010185)
(1.00155 0 9.62306e-05)
(1.00231 0 9.05841e-05)
(1.00307 0 8.49106e-05)
(1.00384 0 7.92117e-05)
(1.00461 0 7.34857e-05)
(1.00538 0 6.77309e-05)
(1.00614 0 6.19874e-05)
(1.0069 0 5.62491e-05)
(1.00765 0 5.0484e-05)
(1.00841 0 4.46904e-05)
(1.00917 0 3.887e-05)
(1.00994 0 3.30229e-05)
(1.01071 0 2.71472e-05)
(1.01149 0 2.12447e-05)
(1.01224 0 1.55389e-05)
(1.013 0 9.85378e-06)
(1.01376 0 4.14312e-06)
(1.01452 0 -1.59479e-06)
(1.01529 0 -7.35824e-06)
(1.01605 0 -1.31489e-05)
(1.01683 0 -1.89686e-05)
(1.0176 0 -2.47087e-05)
(1.01835 0 -3.01589e-05)
(1.01911 0 -3.56345e-05)
(1.01988 0 -4.11369e-05)
(1.02064 0 -4.66645e-05)
(1.02141 0 -5.22175e-05)
(1.02219 0 -5.77973e-05)
(1.02296 0 -6.34039e-05)
(1.02372 0 -6.86631e-05)
(1.02448 0 -7.38739e-05)
(1.02525 0 -7.91095e-05)
(1.02602 0 -8.43697e-05)
(1.02679 0 -8.96533e-05)
(1.02756 0 -9.4963e-05)
(1.02834 0 -0.000100299)
(1.02911 0 -0.000105357)
(1.02987 0 -0.000110219)
(1.03064 0 -0.000115105)
(1.03141 0 -0.000120014)
(1.03218 0 -0.000124947)
(1.03296 0 -0.000129902)
(1.03374 0 -0.00013488)
(1.03451 0 -0.000139557)
(1.03528 0 -0.000143881)
(1.03604 0 -0.000148225)
(1.03682 0 -0.00015259)
(1.03759 0 -0.000156975)
(1.03837 0 -0.000161381)
(1.03916 0 -0.000165807)
(1.03993 0 -0.000169834)
(1.0407 0 -0.000173452)
(1.04147 0 -0.000177088)
(1.04225 0 -0.00018074)
(1.04303 0 -0.00018441)
(1.04381 0 -0.000188097)
(1.0446 0 -0.000191801)
(1.04537 0 -0.000194904)
(1.04615 0 -0.000197712)
(1.04692 0 -0.000200532)
(1.0477 0 -0.000203365)
(1.04849 0 -0.000206211)
(1.04928 0 -0.000209071)
(1.05007 0 -0.000211945)
(1.05084 0 -0.000213943)
(1.05162 0 -0.000215922)
(1.0524 0 -0.00021791)
(1.05319 0 -0.000219908)
(1.05398 0 -0.000221915)
(1.05477 0 -0.000223932)
(1.05556 0 -0.000225636)
(1.05634 0 -0.000226874)
(1.05712 0 -0.000228119)
(1.05791 0 -0.000229369)
(1.0587 0 -0.000230625)
(1.0595 0 -0.000231887)
(1.0603 0 -0.000233155)
(1.06108 0 -0.000233871)
(1.06187 0 -0.000234572)
(1.06266 0 -0.000235275)
(1.06345 0 -0.000235982)
(1.06425 0 -0.000236693)
(1.06505 0 -0.000237406)
(1.06584 0 -0.000237959)
(1.06663 0 -0.000238425)
(1.06743 0 -0.000238893)
(1.06822 0 -0.000239364)
(1.06902 0 -0.000239836)
(1.06983 0 -0.000240311)
(1.07063 0 -0.000240814)
(1.07142 0 -0.000241348)
(1.07222 0 -0.000241886)
(1.07302 0 -0.000242426)
(1.07382 0 -0.000242968)
(1.07463 0 -0.000243513)
(1.07543 0 -0.000244164)
(1.07622 0 -0.00024499)
(1.07702 0 -0.00024582)
(1.07782 0 -0.000246654)
(1.07863 0 -0.000247491)
(1.07944 0 -0.000248333)
(1.08024 0 -0.000249309)
(1.08104 0 -0.000250476)
(1.08184 0 -0.00025165)
(1.08264 0 -0.000252828)
(1.08345 0 -0.000254012)
(1.08426 0 -0.000255202)
(1.08506 0 -0.000256474)
(1.08586 0 -0.000257812)
(1.08666 0 -0.000259157)
(1.08747 0 -0.000260509)
(1.08828 0 -0.000261866)
(1.08909 0 -0.00026323)
(1.08989 0 -0.000264568)
(1.09069 0 -0.000265905)
(1.09149 0 -0.000267248)
(1.09229 0 -0.000268597)
(1.0931 0 -0.000269953)
(1.09391 0 -0.00027131)
(1.09471 0 -0.000272652)
(1.0955 0 -0.000274)
(1.09631 0 -0.000275354)
(1.09711 0 -0.000276715)
(1.09792 0 -0.000278082)
(1.09872 0 -0.000279477)
(1.09951 0 -0.000280892)
(1.10031 0 -0.000282313)
(1.10111 0 -0.000283741)
(1.10192 0 -0.000285176)
(1.10272 0 -0.000286615)
(1.10351 0 -0.000288049)
(1.10431 0 -0.000289491)
(1.1051 0 -0.00029094)
(1.1059 0 -0.000292395)
(1.10671 0 -0.000293857)
(1.1075 0 -0.000295274)
(1.10828 0 -0.000296687)
(1.10908 0 -0.000298106)
(1.10987 0 -0.000299532)
(1.11067 0 -0.000300965)
(1.11146 0 -0.000302381)
(1.11224 0 -0.000303788)
(1.11303 0 -0.0003052)
(1.11381 0 -0.00030662)
(1.11461 0 -0.000308046)
(1.11539 0 -0.000309502)
(1.11617 0 -0.000310995)
(1.11695 0 -0.000312494)
(1.11773 0 -0.000314001)
(1.11851 0 -0.000315515)
(1.11929 0 -0.000317092)
(1.12006 0 -0.000318773)
(1.12083 0 -0.000320463)
(1.1216 0 -0.000322161)
(1.12238 0 -0.000323866)
(1.12314 0 -0.000325665)
(1.1239 0 -0.000327611)
(1.12466 0 -0.000329567)
(1.12542 0 -0.000331531)
(1.12618 0 -0.000333505)
(1.12694 0 -0.000335648)
(1.12768 0 -0.00033797)
(1.12843 0 -0.000340303)
(1.12918 0 -0.000342647)
(1.12993 0 -0.000345001)
(1.13066 0 -0.000347621)
(1.13139 0 -0.000350371)
(1.13212 0 -0.000353135)
(1.13285 0 -0.000355911)
(1.13359 0 -0.000358701)
(1.1343 0 -0.000361715)
(1.13501 0 -0.000364752)
(1.13573 0 -0.000367803)
(1.13644 0 -0.00037087)
(1.13716 0 -0.000373925)
(1.13784 0 -0.000376937)
(1.13854 0 -0.000379963)
(1.13923 0 -0.000383004)
(1.13993 0 -0.000386059)
(1.14061 0 -0.000388856)
(1.14127 0 -0.000391571)
(1.14194 0 -0.000394299)
(1.14262 0 -0.00039704)
(1.14329 0 -0.000399667)
(1.14393 0 -0.00040193)
(1.14457 0 -0.000404204)
(1.14522 0 -0.000406489)
(1.14587 0 -0.000408784)
(1.14649 0 -0.000410615)
(1.1471 0 -0.000412363)
(1.14772 0 -0.00041412)
(1.14834 0 -0.000415884)
(1.14894 0 -0.000417336)
(1.14952 0 -0.000418472)
(1.1501 0 -0.000419613)
(1.15069 0 -0.00042076)
(1.15127 0 -0.000421755)
(1.15182 0 -0.000422238)
(1.15236 0 -0.000422723)
(1.15291 0 -0.00042321)
(1.15346 0 -0.000423677)
(1.15397 0 -0.000423552)
(1.15448 0 -0.000423427)
(1.15499 0 -0.000423301)
(1.1555 0 -0.000423175)
(1.15597 0 -0.000422618)
(1.15643 0 -0.000422017)
(1.1569 0 -0.000421414)
(1.15737 0 -0.000420807)
(1.15779 0 -0.000419954)
(1.15821 0 -0.000419056)
(1.15863 0 -0.000418153)
(1.15905 0 -0.000417247)
(1.15943 0 -0.00041619)
(1.1598 0 -0.000415105)
(1.16017 0 -0.000414016)
(1.16054 0 -0.000412921)
(1.16086 0 -0.00041176)
(1.16117 0 -0.00041059)
(1.16149 0 -0.000409414)
(1.1618 0 -0.000408251)
(1.16206 0 -0.000407274)
(1.16232 0 -0.000406293)
(1.16258 0 -0.000405307)
(1.16282 0 -0.000404473)
(1.16302 0 -0.000404015)
(1.16322 0 -0.000403555)
(1.16342 0 -0.000403093)
(1.16358 0 -0.000402907)
(1.16372 0 -0.000402939)
(1.16386 0 -0.000402972)
(1.16399 0 -0.000403004)
(1.16407 0 -0.000403148)
(1.16414 0 -0.000403307)
(1.16421 0 -0.000403466)
(1.16426 0 -0.000403581)
(1.16426 0 -0.000403581)
)
;

boundaryField
{
    INLET
    {
        type            cyclic;
    }
    OUTLET
    {
        type            cyclic;
    }
    CENTER
    {
        type            symmetryPlane;
    }
    WALL
    {
        type            noSlip;
    }
    frontAndBackPlanes
    {
        type            empty;
    }
}


// ************************************************************************* //
