/*--------------------------------*- C++ -*----------------------------------*\
| =========                 |                                                 |
| \\      /  F ield         | OpenFOAM: The Open Source CFD Toolbox           |
|  \\    /   O peration     | Version:  v1806                                 |
|   \\  /    A nd           | Web:      www.OpenFOAM.com                      |
|    \\/     M anipulation  |                                                 |
\*---------------------------------------------------------------------------*/
FoamFile
{
    version     2.0;
    format      ascii;
    class       volVectorField;
    location    "10000";
    object      divRS_DNS;
}
// * * * * * * * * * * * * * * * * * * * * * * * * * * * * * * * * * * * * * //

dimensions      [0 1 -2 0 0 0 0];


internalField   nonuniform List<vector> 
1025
(
(-9.85623e-06 -1.61873e-06 -4.64129e-10)
(-3.8188e-05 7.04111e-07 -1.92534e-09)
(-8.47521e-05 1.92616e-06 -4.44027e-09)
(-0.000174027 5.5844e-06 -9.75996e-09)
(-0.000282485 1.06123e-05 -1.6438e-08)
(-0.000341634 1.36727e-05 -2.01577e-08)
(-0.000591516 3.10006e-05 -3.69445e-08)
(-0.00082755 4.73686e-05 -5.28011e-08)
(-0.000827552 4.73686e-05 -5.2801e-08)
(-0.00116659 7.96407e-05 -7.61458e-08)
(-0.00167668 0.000128195 -1.11267e-07)
(-0.00184773 0.000144477 -1.23045e-07)
(-0.00184771 0.000144477 -1.23045e-07)
(-0.00220577 0.000187945 -1.45993e-07)
(-0.00314118 0.000301513 -2.05944e-07)
(-0.00371854 0.000371609 -2.42947e-07)
(-0.00371855 0.000371608 -2.42947e-07)
(-0.00371851 0.000371611 -2.42946e-07)
(-0.00413234 0.00043188 -2.64353e-07)
(-0.00570083 0.000660334 -3.45495e-07)
(-0.00685541 0.000828526 -4.05235e-07)
(-0.00685551 0.000828524 -4.05226e-07)
(-0.00685552 0.000828521 -4.0522e-07)
(-0.00685537 0.000828523 -4.05228e-07)
(-0.00775784 0.000978754 -4.34594e-07)
(-0.0102011 0.00138552 -5.14065e-07)
(-0.0117419 0.00164204 -5.64188e-07)
(-0.0117419 0.00164203 -5.64196e-07)
(-0.0117419 0.00164204 -5.64192e-07)
(-0.0117419 0.00164204 -5.64202e-07)
(-0.0117419 0.00164203 -5.642e-07)
(-0.0144711 0.00214316 -5.8842e-07)
(-0.0180383 0.00279821 -6.20104e-07)
(-0.0188765 0.00295207 -6.27551e-07)
(-0.0188764 0.00295199 -6.27544e-07)
(-0.018876 0.0029521 -6.27538e-07)
(-0.018877 0.00295216 -6.27541e-07)
(-0.0188765 0.00295201 -6.27552e-07)
(-0.0214292 0.00345711 -5.86862e-07)
(-0.026332 0.00442704 -5.08758e-07)
(-0.0286814 0.0048917 -4.71338e-07)
(-0.0286812 0.00489157 -4.71334e-07)
(-0.028681 0.00489165 -4.7133e-07)
(-0.0286819 0.00489173 -4.71326e-07)
(-0.0286812 0.00489166 -4.71339e-07)
(-0.0286811 0.00489164 -4.71338e-07)
(-0.0331651 0.00583597 -2.97754e-07)
(-0.0395127 0.00717283 -5.20293e-08)
(-0.0413777 0.00756536 2.01264e-08)
(-0.0413773 0.00756536 2.01237e-08)
(-0.041377 0.00756544 2.01221e-08)
(-0.0413778 0.00756542 2.01205e-08)
(-0.0413775 0.00756531 2.01179e-08)
(-0.0413771 0.00756542 2.01255e-08)
(-0.0444076 0.00824408 1.9392e-07)
(-0.0521463 0.00997717 6.3776e-07)
(-0.0568555 0.0110317 9.07811e-07)
(-0.0568562 0.0110317 9.0781e-07)
(-0.0568551 0.0110317 9.07818e-07)
(-0.0568552 0.0110318 9.0782e-07)
(-0.0568563 0.0110321 9.07813e-07)
(-0.0568564 0.0110315 9.07815e-07)
(-0.0568555 0.011031 9.07808e-07)
(-0.0625622 0.012404 1.31547e-06)
(-0.0714276 0.0145339 1.94873e-06)
(-0.0745852 0.0152919 2.17431e-06)
(-0.0745847 0.0152929 2.17431e-06)
(-0.0745855 0.0152932 2.17431e-06)
(-0.0745856 0.0152928 2.17431e-06)
(-0.0745856 0.0152924 2.1743e-06)
(-0.0745857 0.0152929 2.1743e-06)
(-0.0745848 0.0152934 2.17431e-06)
(-0.0796002 0.0166107 2.58592e-06)
(-0.08911 0.0191112 3.36639e-06)
(-0.0936053 0.0202934 3.73518e-06)
(-0.0936034 0.0202929 3.7351e-06)
(-0.0936064 0.0202924 3.73517e-06)
(-0.0936093 0.0202929 3.73515e-06)
(-0.0936032 0.0202933 3.73513e-06)
(-0.0936061 0.0202928 3.7352e-06)
(-0.0936049 0.0202932 3.73519e-06)
(-0.0945819 0.0205813 3.82397e-06)
(-0.10409 0.0233988 4.69051e-06)
(-0.11262 0.0259276 5.46832e-06)
(-0.112618 0.025927 5.46845e-06)
(-0.112624 0.0259272 5.4684e-06)
(-0.112626 0.0259272 5.46837e-06)
(-0.112614 0.0259269 5.46845e-06)
(-0.112623 0.0259273 5.46839e-06)
(-0.112628 0.025927 5.46839e-06)
(-0.112625 0.0259268 5.46838e-06)
(-0.116362 0.0272315 5.84277e-06)
(-0.125144 0.0302949 6.72206e-06)
(-0.130195 0.0320543 7.22707e-06)
(-0.13019 0.0320534 7.22712e-06)
(-0.130194 0.0320533 7.22701e-06)
(-0.130194 0.0320537 7.22704e-06)
(-0.130193 0.032054 7.22704e-06)
(-0.130194 0.0320537 7.227e-06)
(-0.130192 0.0320532 7.22708e-06)
(-0.130193 0.0320537 7.22712e-06)
(-0.134236 0.0338218 7.6597e-06)
(-0.141621 0.0370499 8.45034e-06)
(-0.144958 0.0385095 8.80835e-06)
(-0.144954 0.0385094 8.80758e-06)
(-0.144955 0.0385099 8.80795e-06)
(-0.144961 0.0385098 8.80843e-06)
(-0.144956 0.0385099 8.80741e-06)
(-0.144954 0.0385097 8.80788e-06)
(-0.144962 0.0385097 8.808e-06)
(-0.144964 0.0385097 8.80777e-06)
(-0.147757 0.0402118 9.08738e-06)
(-0.153203 0.0435195 9.62971e-06)
(-0.155849 0.045125 9.89275e-06)
(-0.155843 0.0451246 9.89287e-06)
(-0.155845 0.0451225 9.89338e-06)
(-0.155848 0.0451257 9.89312e-06)
(-0.155853 0.0451287 9.89324e-06)
(-0.155851 0.0451255 9.893e-06)
(-0.155843 0.0451223 9.89276e-06)
(-0.155843 0.0451248 9.89363e-06)
(-0.157026 0.0463433 9.9198e-06)
(-0.16021 0.0496439 9.99184e-06)
(-0.162223 0.0517315 1.00382e-05)
(-0.162227 0.0517343 1.00381e-05)
(-0.162222 0.0517316 1.00382e-05)
(-0.162218 0.051729 1.00384e-05)
(-0.162224 0.051728 1.00375e-05)
(-0.162225 0.0517322 1.00377e-05)
(-0.162223 0.0517331 1.00386e-05)
(-0.162223 0.051732 1.00384e-05)
(-0.162345 0.0522015 9.94691e-06)
(-0.163206 0.05542 9.3202e-06)
(-0.163928 0.0581703 8.78427e-06)
(-0.16393 0.0581685 8.78406e-06)
(-0.163934 0.0581716 8.78425e-06)
(-0.163932 0.0581726 8.78482e-06)
(-0.163931 0.0581785 8.7844e-06)
(-0.16393 0.0581775 8.78398e-06)
(-0.163929 0.0581698 8.78492e-06)
(-0.16393 0.0581736 8.78488e-06)
(-0.163933 0.0581736 8.78426e-06)
(-0.162759 0.060865 7.50897e-06)
(-0.161426 0.0639275 6.05777e-06)
(-0.161263 0.0642954 5.88181e-06)
(-0.161266 0.0643042 5.88197e-06)
(-0.161264 0.0643044 5.88128e-06)
(-0.161265 0.0643003 5.88151e-06)
(-0.161265 0.0643028 5.88175e-06)
(-0.161265 0.0643009 5.88152e-06)
(-0.161267 0.0642949 5.88156e-06)
(-0.161258 0.0642976 5.88123e-06)
(-0.159347 0.0659996 4.57787e-06)
(-0.156152 0.0688359 2.39263e-06)
(-0.154855 0.0699849 1.51114e-06)
(-0.154852 0.069984 1.51098e-06)
(-0.154851 0.069981 1.51078e-06)
(-0.154852 0.069982 1.51114e-06)
(-0.154854 0.0699808 1.51085e-06)
(-0.154856 0.0699858 1.51116e-06)
(-0.154854 0.0699865 1.51139e-06)
(-0.154848 0.069979 1.51095e-06)
(-0.153345 0.0708107 6.84137e-07)
(-0.148713 0.0733707 -1.87074e-06)
(-0.145553 0.0750954 -3.59917e-06)
(-0.145539 0.0751016 -3.59902e-06)
(-0.145514 0.0751019 -3.59887e-06)
(-0.145539 0.0750977 -3.5991e-06)
(-0.145582 0.0750966 -3.59857e-06)
(-0.145511 0.0750976 -3.59874e-06)
(-0.145535 0.0750978 -3.59867e-06)
(-0.145555 0.0751017 -3.59907e-06)
(-0.14504 0.0752846 -3.78788e-06)
(-0.139413 0.0775011 -6.10454e-06)
(-0.134251 0.0795414 -8.2333e-06)
(-0.134227 0.0795436 -8.23388e-06)
(-0.134242 0.0795457 -8.23396e-06)
(-0.134275 0.0795479 -8.2334e-06)
(-0.134252 0.0795444 -8.23341e-06)
(-0.134211 0.0795465 -8.23348e-06)
(-0.134225 0.0795485 -8.23356e-06)
(-0.134258 0.0795451 -8.23356e-06)
(-0.134253 0.0795473 -8.23351e-06)
(-0.128694 0.0811832 -9.45556e-06)
(-0.122506 0.0830293 -1.08315e-05)
(-0.12185 0.0832381 -1.0985e-05)
(-0.121831 0.083234 -1.09854e-05)
(-0.121791 0.0832362 -1.09854e-05)
(-0.121772 0.0832376 -1.09852e-05)
(-0.121848 0.0832372 -1.09856e-05)
(-0.12185 0.0832376 -1.09856e-05)
(-0.121778 0.0832389 -1.09854e-05)
(-0.12178 0.0832394 -1.0985e-05)
(-0.116971 0.0843277 -1.09019e-05)
(-0.11057 0.0857701 -1.07932e-05)
(-0.109011 0.0861127 -1.07671e-05)
(-0.10902 0.0861101 -1.07666e-05)
(-0.10903 0.0861127 -1.07667e-05)
(-0.109012 0.0861137 -1.07665e-05)
(-0.109021 0.0861162 -1.07666e-05)
(-0.109008 0.0861101 -1.07668e-05)
(-0.10899 0.0861111 -1.07667e-05)
(-0.109045 0.0861156 -1.07668e-05)
(-0.104536 0.0868301 -9.55911e-06)
(-0.0982365 0.087841 -7.85548e-06)
(-0.0964816 0.0881368 -7.35956e-06)
(-0.0964243 0.0881332 -7.35946e-06)
(-0.0964162 0.0881345 -7.3595e-06)
(-0.0964339 0.0881339 -7.3595e-06)
(-0.0964259 0.0881352 -7.35949e-06)
(-0.0964666 0.0881365 -7.35949e-06)
(-0.0964106 0.088133 -7.35948e-06)
(-0.0964027 0.0881343 -7.35952e-06)
(-0.0920183 0.0885648 -5.20632e-06)
(-0.0860162 0.0891471 -2.3222e-06)
(-0.0844644 0.089293 -1.59135e-06)
(-0.0844904 0.0892916 -1.59139e-06)
(-0.0844965 0.0892974 -1.59133e-06)
(-0.0844755 0.089296 -1.59133e-06)
(-0.0844815 0.0892925 -1.59132e-06)
(-0.084507 0.0892912 -1.59132e-06)
(-0.0845058 0.089292 -1.59136e-06)
(-0.0844659 0.0892931 -1.59135e-06)
(-0.0796103 0.0894305 1.34477e-06)
(-0.074101 0.0895853 4.67488e-06)
(-0.0734325 0.0896076 5.06888e-06)
(-0.073462 0.0896093 5.06888e-06)
(-0.0734303 0.0896045 5.06887e-06)
(-0.0734266 0.089602 5.06885e-06)
(-0.0734396 0.089606 5.06884e-06)
(-0.0734244 0.0896078 5.06884e-06)
(-0.0734648 0.0896053 5.0689e-06)
(-0.072836 0.0895746 5.45254e-06)
(-0.0678201 0.0893271 8.5726e-06)
(-0.0634516 0.089109 1.13091e-05)
(-0.0634231 0.0891109 1.13091e-05)
(-0.0634532 0.0891131 1.13089e-05)
(-0.0634408 0.0891111 1.13089e-05)
(-0.0634414 0.089111 1.13091e-05)
(-0.0634426 0.0891151 1.13094e-05)
(-0.0634432 0.089115 1.13092e-05)
(-0.0634444 0.0891107 1.13091e-05)
(-0.061313 0.0888179 1.25708e-05)
(-0.0568759 0.0882204 1.52279e-05)
(-0.0545079 0.0878854 1.66239e-05)
(-0.0545379 0.087844 1.66238e-05)
(-0.0545677 0.0878805 1.66233e-05)
(-0.054516 0.0878764 1.66237e-05)
(-0.0545049 0.0878719 1.6624e-05)
(-0.0545345 0.0878679 1.66235e-05)
(-0.0545527 0.0878459 1.66233e-05)
(-0.0545419 0.0878818 1.66237e-05)
(-0.0508037 0.0870053 1.86946e-05)
(-0.0469058 0.0860591 2.08931e-05)
(-0.0467139 0.0859505 2.10205e-05)
(-0.0466994 0.0859548 2.10202e-05)
(-0.0466848 0.0859985 2.10203e-05)
(-0.0466616 0.085986 2.10202e-05)
(-0.0466769 0.0859737 2.10201e-05)
(-0.0466924 0.0859616 2.10204e-05)
(-0.0466603 0.0859713 2.10205e-05)
(-0.0448721 0.0853187 2.18532e-05)
(-0.0414745 0.0840801 2.34252e-05)
(-0.0398491 0.0835094 2.41642e-05)
(-0.0398197 0.0835086 2.41642e-05)
(-0.0398205 0.0834923 2.41638e-05)
(-0.0398511 0.0834605 2.41637e-05)
(-0.0398519 0.0834814 2.41641e-05)
(-0.0398525 0.0835023 2.41641e-05)
(-0.039846 0.0835076 2.4164e-05)
(-0.0391107 0.0831486 2.43122e-05)
(-0.0361674 0.0816671 2.49307e-05)
(-0.0339002 0.0805355 2.53998e-05)
(-0.0338915 0.080533 2.54014e-05)
(-0.0339068 0.0805377 2.54014e-05)
(-0.0339218 0.0805421 2.54004e-05)
(-0.0339429 0.0805256 2.54039e-05)
(-0.0339223 0.0805299 2.54028e-05)
(-0.0339019 0.0805347 2.54018e-05)
(-0.033713 0.0804133 2.53633e-05)
(-0.0311556 0.0787495 2.48235e-05)
(-0.0288141 0.0771844 2.43239e-05)
(-0.028818 0.0771701 2.4321e-05)
(-0.0287923 0.0771688 2.43223e-05)
(-0.0287962 0.0771888 2.43263e-05)
(-0.0287951 0.0771953 2.43227e-05)
(-0.028794 0.0772019 2.43225e-05)
(-0.0288266 0.0771747 2.43257e-05)
(-0.0287586 0.0771142 2.42686e-05)
(-0.0265247 0.0752881 2.2579e-05)
(-0.0244016 0.0735372 2.09442e-05)
(-0.0244209 0.0735276 2.09398e-05)
(-0.024436 0.0735056 2.09419e-05)
(-0.0244183 0.0735496 2.0944e-05)
(-0.0244045 0.0735401 2.09396e-05)
(-0.0244195 0.0735184 2.09417e-05)
(-0.0244344 0.0735294 2.09438e-05)
(-0.0241923 0.0733156 2.06152e-05)
(-0.0223186 0.0713664 1.78448e-05)
(-0.020682 0.0696621 1.54015e-05)
(-0.0206503 0.0696591 1.54005e-05)
(-0.0206787 0.0696448 1.54002e-05)
(-0.0206757 0.0696622 1.5403e-05)
(-0.0206411 0.0696794 1.54027e-05)
(-0.0206692 0.0696655 1.53992e-05)
(-0.0206662 0.0696514 1.5402e-05)
(-0.02014 0.0690223 1.4214e-05)
(-0.0185417 0.0670076 1.06045e-05)
(-0.0174736 0.0656484 8.18696e-06)
(-0.0174852 0.065653 8.1861e-06)
(-0.0174637 0.0656477 8.18402e-06)
(-0.0174698 0.0656626 8.18373e-06)
(-0.0174487 0.0656574 8.18468e-06)
(-0.0174574 0.065652 8.18561e-06)
(-0.0174637 0.0656668 8.18533e-06)
(-0.0165282 0.0642751 5.76442e-06)
(-0.0151843 0.062235 2.13338e-06)
(-0.0147291 0.0615813 9.25321e-07)
(-0.0147478 0.0615855 9.23941e-07)
(-0.0147375 0.0615898 9.22533e-07)
(-0.0147271 0.061594 9.24059e-07)
(-0.0147148 0.0615607 9.22545e-07)
(-0.0147025 0.061556 9.23911e-07)
(-0.0145789 0.0613332 5.75965e-07)
(-0.0134076 0.0592647 -2.13969e-06)
(-0.0123819 0.0574812 -4.50431e-06)
(-0.0123807 0.0574958 -4.50309e-06)
(-0.0123795 0.0574822 -4.50189e-06)
(-0.0123749 0.0574805 -4.50222e-06)
(-0.0123996 0.0574868 -4.50319e-06)
(-0.0123985 0.057501 -4.502e-06)
(-0.0123663 0.0574993 -4.50507e-06)
(-0.0116555 0.0560348 -5.40198e-06)
(-0.0106514 0.0539886 -6.65316e-06)
(-0.0103839 0.0534342 -7.01189e-06)
(-0.0103876 0.0534446 -7.01292e-06)
(-0.0103656 0.0534351 -7.01219e-06)
(-0.0103706 0.0534258 -7.01147e-06)
(-0.0103741 0.0534094 -7.00982e-06)
(-0.010379 0.0534266 -7.01175e-06)
(-0.00999041 0.0526045 -7.0399e-06)
(-0.00913244 0.0506045 -7.10352e-06)
(-0.00864588 0.0494531 -7.14323e-06)
(-0.0086314 0.0494557 -7.1436e-06)
(-0.00864292 0.0494324 -7.14396e-06)
(-0.00865322 0.0494543 -7.14341e-06)
(-0.00863792 0.0494761 -7.1403e-06)
(-0.00864913 0.0494531 -7.14321e-06)
(-0.0084573 0.0489441 -7.06944e-06)
(-0.00771197 0.0470237 -6.77638e-06)
(-0.00717245 0.0455925 -6.5605e-06)
(-0.00716423 0.0455816 -6.56265e-06)
(-0.00715621 0.0455957 -6.56231e-06)
(-0.00714725 0.0455794 -6.56114e-06)
(-0.00716306 0.0455876 -6.56246e-06)
(-0.0071534 0.0455905 -6.56051e-06)
(-0.00702208 0.0451795 -6.46858e-06)
(-0.00638393 0.0433476 -6.03162e-06)
(-0.00587025 0.041865 -5.68667e-06)
(-0.00589082 0.041861 -5.68647e-06)
(-0.00588661 0.0418522 -5.68318e-06)
(-0.00588303 0.0418482 -5.68298e-06)
(-0.0058796 0.0418682 -5.68516e-06)
(-0.00587539 0.0418594 -5.68664e-06)
(-0.00573075 0.0413586 -5.25466e-06)
(-0.00519024 0.0395776 -3.71227e-06)
(-0.00479295 0.0382969 -2.60121e-06)
(-0.0047933 0.0383003 -2.59813e-06)
(-0.00479376 0.0383037 -2.59967e-06)
(-0.00479465 0.0382886 -2.60152e-06)
(-0.0047951 0.038292 -2.60075e-06)
(-0.00477221 0.0382912 -2.59971e-06)
(-0.00456904 0.0375004 -9.40271e-07)
(-0.00412034 0.0357968 2.62066e-06)
(-0.00385436 0.0348907 4.52213e-06)
(-0.00383631 0.0349058 4.52325e-06)
(-0.00384057 0.0348984 4.52437e-06)
(-0.00384448 0.0348874 4.52276e-06)
(-0.00384824 0.0348982 4.52336e-06)
(-0.00385249 0.034913 4.52446e-06)
(-0.0035519 0.0336631 8.44811e-06)
(-0.00314425 0.0320477 1.35661e-05)
(-0.00302117 0.0316789 1.47605e-05)
(-0.00302864 0.031683 1.4761e-05)
(-0.00305748 0.0316656 1.47616e-05)
(-0.00304295 0.0316842 1.47611e-05)
(-0.00302834 0.0316816 1.47607e-05)
(-0.00299337 0.0314087 1.55147e-05)
(-0.00264442 0.0299022 1.96921e-05)
(-0.00233919 0.0286341 2.3112e-05)
(-0.00234899 0.0286456 2.31119e-05)
(-0.00235855 0.0286542 2.31137e-05)
(-0.00234738 0.0286626 2.31113e-05)
(-0.00233632 0.0286505 2.3111e-05)
(-0.00234571 0.0286384 2.31127e-05)
(-0.00215255 0.0276543 2.39712e-05)
(-0.00183919 0.0262513 2.51866e-05)
(-0.00174994 0.0258273 2.55456e-05)
(-0.00176177 0.0258058 2.55455e-05)
(-0.00175335 0.025802 2.55449e-05)
(-0.00174518 0.0258205 2.55449e-05)
(-0.00175677 0.0258192 2.55448e-05)
(-0.00167018 0.0253645 2.51698e-05)
(-0.00140827 0.0240537 2.40573e-05)
(-0.00124563 0.0231802 2.33204e-05)
(-0.00123984 0.0231693 2.33204e-05)
(-0.0012341 0.0231585 2.33186e-05)
(-0.0012283 0.0231648 2.33183e-05)
(-0.00124149 0.0231687 2.33216e-05)
(-0.00123579 0.0230801 2.32777e-05)
(-0.00100343 0.021859 2.27318e-05)
(-0.000791039 0.0207176 2.223e-05)
(-0.000806034 0.0207142 2.22308e-05)
(-0.000802289 0.020709 2.22313e-05)
(-0.000798401 0.0207222 2.22301e-05)
(-0.000794798 0.020719 2.2229e-05)
(-0.000791057 0.0207156 2.22298e-05)
(-0.000641304 0.0196693 2.40755e-05)
(-0.000437486 0.0185349 2.6074e-05)
(-0.000417155 0.0184655 2.62307e-05)
(-0.000433294 0.018451 2.62322e-05)
(-0.000431269 0.0184367 2.62318e-05)
(-0.000411384 0.0184387 2.62309e-05)
(-0.000409397 0.0184424 2.62305e-05)
(-0.000283853 0.0175444 2.85194e-05)
(-0.000123489 0.0165068 3.11534e-05)
(-0.000105319 0.0163595 3.1499e-05)
(-0.000104822 0.0163522 3.1499e-05)
(-0.000104321 0.0163609 3.14979e-05)
(-0.000103843 0.0163725 3.14988e-05)
(-0.000103369 0.0163494 3.1498e-05)
(3.39645e-05 0.0154685 3.23419e-05)
(0.000187674 0.0145394 3.32677e-05)
(0.000186862 0.0144532 3.33441e-05)
(0.000185915 0.0144366 3.33429e-05)
(0.000185132 0.0144372 3.33451e-05)
(0.000184185 0.0144532 3.33445e-05)
(0.000200034 0.0144026 3.33306e-05)
(0.000314944 0.0135068 3.31237e-05)
(0.000429329 0.0126981 3.29277e-05)
(0.000443714 0.0127044 3.29279e-05)
(0.000441721 0.0126942 3.29282e-05)
(0.000439596 0.0127005 3.29268e-05)
(0.000437572 0.0127046 3.29282e-05)
(0.000467635 0.0124522 3.24961e-05)
(0.00059386 0.0116574 3.10708e-05)
(0.000655203 0.0111058 3.00767e-05)
(0.000652054 0.0111014 3.00755e-05)
(0.000664876 0.0111129 3.00776e-05)
(0.000661734 0.0111076 3.00772e-05)
(0.000658621 0.011118 3.00768e-05)
(0.000717822 0.0106613 2.74745e-05)
(0.000823261 0.00992758 2.34025e-05)
(0.000865873 0.00966372 2.19343e-05)
(0.000846454 0.00966449 2.19344e-05)
(0.000842494 0.00966607 2.19347e-05)
(0.000853859 0.00966683 2.19349e-05)
(0.000864915 0.00962077 2.15366e-05)
(0.000951274 0.00897217 1.55971e-05)
(0.00102218 0.0083728 1.00564e-05)
(0.00101744 0.00836389 1.00576e-05)
(0.00101274 0.00835506 1.00573e-05)
(0.00100794 0.00835987 1.00571e-05)
(0.00101782 0.00836408 1.00575e-05)
(0.00105713 0.00801781 6.38528e-06)
(0.00112531 0.0074399 1.21524e-07)
(0.00116381 0.00718654 -2.47018e-06)
(0.00115834 0.00718161 -2.47014e-06)
(0.00115283 0.00719073 -2.46992e-06)
(0.00116176 0.00718589 -2.46988e-06)
(0.00117068 0.0070814 -3.58079e-06)
(0.00122181 0.00655119 -9.33944e-06)
(0.00127272 0.00610906 -1.39871e-05)
(0.00126681 0.00610877 -1.39869e-05)
(0.00127493 0.00612259 -1.39881e-05)
(0.00128295 0.00612188 -1.39883e-05)
(0.0012769 0.0061069 -1.39861e-05)
(0.00131225 0.00567855 -1.8463e-05)
(0.00136117 0.00521118 -2.3513e-05)
(0.00138221 0.00514578 -2.40851e-05)
(0.00137578 0.00514878 -2.4085e-05)
(0.00136928 0.00515187 -2.40849e-05)
(0.00137643 0.00514135 -2.40847e-05)
(0.00141006 0.00486235 -2.69445e-05)
(0.00144357 0.00442461 -3.12444e-05)
(0.00145022 0.00427088 -3.26836e-05)
(0.00146998 0.00427757 -3.26831e-05)
(0.00146307 0.00428364 -3.26835e-05)
(0.0014561 0.00427656 -3.2684e-05)
(0.00147537 0.00406107 -3.41629e-05)
(0.00150752 0.00367836 -3.69714e-05)
(0.00153933 0.00349268 -3.83002e-05)
(0.00154491 0.00348889 -3.82993e-05)
(0.00153768 0.00348541 -3.82983e-05)
(0.00153052 0.00349463 -3.82986e-05)
(0.00154866 0.00332636 -3.86536e-05)
(0.00159196 0.00296963 -3.94077e-05)
(0.00159722 0.00279194 -3.98076e-05)
(0.00160215 0.00277884 -3.98072e-05)
(0.00160711 0.00277811 -3.98069e-05)
(0.00159958 0.00278999 -3.98078e-05)
(0.00162908 0.00262922 -3.99146e-05)
(0.001646 0.00230966 -4.01312e-05)
(0.00166275 0.00216406 -4.02433e-05)
(0.00166721 0.00216612 -4.02434e-05)
(0.00165928 0.00215589 -4.02422e-05)
(0.00167559 0.00214575 -4.02423e-05)
(0.00167987 0.00198021 -3.97384e-05)
(0.00169588 0.00170814 -3.88853e-05)
(0.0017235 0.00159278 -3.85368e-05)
(0.00172731 0.00159714 -3.85377e-05)
(0.00171927 0.00160152 -3.85374e-05)
(0.00171121 0.00159401 -3.85373e-05)
(0.00172651 0.00140035 -3.54237e-05)
(0.00175325 0.00114964 -3.13636e-05)
(0.00175652 0.00108627 -3.04178e-05)
(0.00175982 0.00108121 -3.04175e-05)
(0.00176313 0.00108762 -3.04173e-05)
(0.0017548 0.0010939 -3.03102e-05)
(0.00178048 0.000862454 -2.40053e-05)
(0.00179492 0.000632165 -1.78078e-05)
(0.00179761 0.00064039 -1.7808e-05)
(0.00180033 0.0006374 -1.78072e-05)
(0.00179196 0.000634404 -1.78077e-05)
(0.00180578 0.000576243 -1.55058e-05)
(0.00181927 0.000375199 -8.75546e-06)
(0.00183273 0.000241441 -4.30773e-06)
(0.00183517 0.00024032 -4.30772e-06)
(0.00183734 0.000239184 -4.30778e-06)
(0.00183954 0.000238058 -4.30785e-06)
(0.00185251 0.000108006 8.64752e-07)
(0.00186536 -6.42217e-05 7.89228e-06)
(0.00186725 -0.000117346 9.74712e-06)
(0.00186907 -0.000116842 9.74683e-06)
(0.00187082 -0.000105698 9.74728e-06)
(0.00188321 -0.000136698 1.10732e-05)
(0.00189527 -0.000292893 1.76763e-05)
(0.00190713 -0.000416864 2.29535e-05)
(0.00191897 -0.000425267 2.29532e-05)
(0.00192041 -0.000423339 2.29529e-05)
(0.00191143 -0.00041106 2.29524e-05)
(0.00192284 -0.000511167 2.73549e-05)
(0.0019444 -0.000641284 3.33476e-05)
(0.0019454 -0.000678839 3.49369e-05)
(0.00194634 -0.000685764 3.49375e-05)
(0.00195743 -0.000682597 3.49378e-05)
(0.00195825 -0.000709294 3.67984e-05)
(0.00196884 -0.000825132 4.23501e-05)
(0.00197952 -0.00091058 4.60395e-05)
(0.00197016 -0.000906275 4.60395e-05)
(0.00197096 -0.000902142 4.60404e-05)
(0.00198144 -0.000907741 4.60439e-05)
(0.00199125 -0.00100997 5.03926e-05)
(0.00199131 -0.00110199 5.47376e-05)
(0.00199133 -0.00110628 5.47379e-05)
(0.00199234 -0.00110155 5.47385e-05)
(0.00199331 -0.00109679 5.47382e-05)
(0.00200189 -0.0011668 5.52774e-05)
(0.00201037 -0.00125525 5.60137e-05)
(0.00201129 -0.0012782 5.62115e-05)
(0.00201216 -0.00127282 5.62115e-05)
(0.00201119 -0.00127559 5.62114e-05)
(0.00201018 -0.00131535 5.51308e-05)
(0.00202855 -0.00138305 5.30765e-05)
(0.00202849 -0.00142266 5.21028e-05)
(0.00202922 -0.00142596 5.21033e-05)
(0.00203823 -0.00141948 5.21037e-05)
(0.00202716 -0.00143885 5.07331e-05)
(0.002045 -0.00151342 4.71499e-05)
(0.00205476 -0.00156125 4.49376e-05)
(0.00204463 -0.00155358 4.49375e-05)
(0.0020515 -0.00155416 4.49378e-05)
(0.0020592 -0.0015731 4.35074e-05)
(0.00206774 -0.0016365 3.87254e-05)
(0.00207621 -0.00168201 3.53728e-05)
(0.0020846 -0.00167467 3.53703e-05)
(0.00208335 -0.00167534 3.53733e-05)
(0.00208117 -0.00169254 3.37607e-05)
(0.00208852 -0.00174465 2.78648e-05)
(0.00210524 -0.00178861 2.35943e-05)
(0.00210395 -0.00178877 2.35946e-05)
(0.00210167 -0.00178813 2.35932e-05)
(0.00210882 -0.00180512 2.13712e-05)
(0.00211673 -0.00185628 1.41642e-05)
(0.0021321 -0.00189798 9.1973e-06)
(0.0021298 -0.00188855 9.20135e-06)
(0.00212748 -0.00188739 9.19701e-06)
(0.00213344 -0.00191101 6.73591e-06)
(0.0021484 -0.00195156 5.97939e-07)
(0.00215599 -0.00198448 -3.0788e-06)
(0.00215359 -0.00198295 -3.08005e-06)
(0.00215038 -0.00198059 -3.07197e-06)
(0.00215692 -0.00200398 -5.83748e-06)
(0.00217147 -0.00204322 -1.0892e-05)
(0.00217703 -0.00206538 -1.31738e-05)
(0.00218253 -0.0020635 -1.31667e-05)
(0.00218011 -0.00205372 -1.31674e-05)
(0.00217852 -0.00208408 -1.62817e-05)
(0.00219261 -0.00212215 -2.04361e-05)
(0.00219713 -0.00212699 -2.14803e-05)
(0.00220153 -0.00213178 -2.14729e-05)
(0.0021991 -0.00212964 -2.14892e-05)
(0.00220426 -0.00215814 -2.44019e-05)
(0.00221714 -0.00218656 -2.72936e-05)
(0.00221376 -0.00219092 -2.72963e-05)
(0.00221801 -0.00218777 -2.7299e-05)
(0.00222305 -0.00219288 -2.78285e-05)
(0.00222805 -0.00222053 -2.95188e-05)
(0.002233 -0.002233 -3.06789e-05)
(0.00223708 -0.00222967 -3.06793e-05)
(0.00224112 -0.00222633 -3.0679e-05)
(0.00224594 -0.00224591 -3.04563e-05)
(0.0022499 -0.00227187 -3.01271e-05)
(0.00225382 -0.00227572 -3.00197e-05)
(0.00225128 -0.00226581 -3.00189e-05)
(0.00225431 -0.00226876 -2.96867e-05)
(0.00226455 -0.00229328 -2.57762e-05)
(0.00226914 -0.00230495 -2.21983e-05)
(0.00226578 -0.00230139 -2.21988e-05)
(0.00226161 -0.00230414 -2.21985e-05)
(0.00227239 -0.00231473 -1.82976e-05)
(0.00227689 -0.00233308 -1.11684e-05)
(0.00227273 -0.00234266 -7.93986e-06)
(0.00227478 -0.00233741 -7.93948e-06)
(0.00227839 -0.00233379 -7.5327e-06)
(0.00228885 -0.00235088 -3.94734e-07)
(0.00229161 -0.00236706 6.33756e-06)
(0.00228143 -0.00237021 6.33811e-06)
(0.00228492 -0.00236656 6.3373e-06)
(0.00229364 -0.00237479 8.9395e-06)
(0.00229552 -0.00238977 1.31695e-05)
(0.00229892 -0.00239276 1.47969e-05)
(0.0023023 -0.00239573 1.47968e-05)
(0.00230412 -0.00239708 1.48796e-05)
(0.0023125 -0.0024116 1.52547e-05)
(0.00231504 -0.00242027 1.55462e-05)
(0.00231096 -0.00241571 1.55463e-05)
(0.00231996 -0.00241772 1.55464e-05)
(0.00232814 -0.00243187 1.36314e-05)
(0.00232334 -0.00243951 1.14379e-05)
(0.00232571 -0.00243495 1.1159e-05)
(0.0023345 -0.00243684 1.11583e-05)
(0.00233683 -0.00244506 9.96763e-06)
(0.0023384 -0.00245247 7.8806e-06)
(0.00233922 -0.002459 6.98361e-06)
(0.00234076 -0.00246001 6.984e-06)
(0.00234229 -0.00246095 6.96943e-06)
(0.00234927 -0.00246737 6.92177e-06)
(0.00235149 -0.00247523 6.88861e-06)
(0.0023475 -0.00247691 6.88848e-06)
(0.00234825 -0.00247699 6.86701e-06)
(0.00234899 -0.00248931 6.64296e-06)
(0.00235578 -0.00248939 6.44141e-06)
(0.00235722 -0.00249016 6.44122e-06)
(0.00234658 -0.00249699 6.44103e-06)
(0.00234729 -0.00250298 4.48254e-06)
(0.00235399 -0.00250894 2.36985e-06)
(0.00235468 -0.0025089 2.2159e-06)
(0.00235607 -0.00250959 2.21612e-06)
(0.00235157 -0.00251029 -9.25004e-07)
(0.00235155 -0.00252118 -4.85665e-06)
(0.00235739 -0.00252621 -5.6461e-06)
(0.00235227 -0.00252028 -5.646e-06)
(0.00235293 -0.00252594 -9.55097e-06)
(0.00235363 -0.0025373 -1.50308e-05)
(0.00235427 -0.00253716 -1.66063e-05)
(0.00235429 -0.00253624 -1.66062e-05)
(0.00235426 -0.00254103 -2.05417e-05)
(0.00236056 -0.00254085 -2.64463e-05)
(0.00236053 -0.00254554 -2.84144e-05)
(0.00236049 -0.00254466 -2.84135e-05)
(0.00236111 -0.00254443 -3.14011e-05)
(0.00236107 -0.00254908 -3.5921e-05)
(0.00236039 -0.00255295 -3.74531e-05)
(0.00236035 -0.00255204 -3.74529e-05)
(0.00236032 -0.00255109 -3.85783e-05)
(0.00235964 -0.00254951 -4.01984e-05)
(0.00235961 -0.00254858 -4.06922e-05)
(0.00236021 -0.00255376 -4.06919e-05)
(0.00236018 -0.00255285 -3.99979e-05)
(0.00235889 -0.0025559 -3.90937e-05)
(0.00235762 -0.00255366 -3.88837e-05)
(0.00236286 -0.00255273 -3.88834e-05)
(0.00236284 -0.0025571 -3.59644e-05)
(0.00236215 -0.00255553 -3.26432e-05)
(0.00236152 -0.00255397 -3.22414e-05)
(0.00236085 -0.00255242 -3.20899e-05)
(0.00236537 -0.00255603 -2.65289e-05)
(0.0023641 -0.00255898 -2.11195e-05)
(0.00236285 -0.00255678 -2.11192e-05)
(0.00236727 -0.00256032 -1.96315e-05)
(0.00236664 -0.00256385 -1.26663e-05)
(0.00236596 -0.0025623 -7.18822e-06)
(0.00236974 -0.00256012 -7.18793e-06)
(0.0023679 -0.0025623 -4.55064e-06)
(0.00236666 -0.00257007 1.50153e-06)
(0.00236602 -0.00257348 4.91623e-06)
(0.0023648 -0.00257129 4.91613e-06)
(0.0023679 -0.00257338 7.57222e-06)
(0.0023667 -0.00258095 1.13999e-05)
(0.00236605 -0.00258424 1.25716e-05)
(0.00236912 -0.00258143 1.25713e-05)
(0.00236199 -0.00258759 1.49271e-05)
(0.0023608 -0.00259498 1.73151e-05)
(0.00236442 -0.00259277 1.73468e-05)
(0.00236742 -0.00259469 1.82195e-05)
(0.00236571 -0.00260601 2.09856e-05)
(0.00236397 -0.00260789 2.28795e-05)
(0.00236695 -0.00260503 2.28796e-05)
(0.00236988 -0.00261152 2.36242e-05)
(0.0023728 -0.00261794 2.47235e-05)
(0.0023665 -0.0026243 2.50783e-05)
(0.00236937 -0.00262146 2.4949e-05)
(0.00237174 -0.00262711 2.31608e-05)
(0.00236895 -0.00263672 2.15022e-05)
(0.00237128 -0.00263325 2.15023e-05)
(0.00237409 -0.00263937 2.02627e-05)
(0.0023769 -0.00264548 1.77928e-05)
(0.0023747 -0.00264646 1.65632e-05)
(0.00237641 -0.00265129 1.65635e-05)
(0.00237812 -0.00265607 1.39653e-05)
(0.00238032 -0.00266139 1.12659e-05)
(0.00238304 -0.00266288 1.11648e-05)
(0.00238902 -0.00266318 9.59114e-06)
(0.00239446 -0.00267156 6.14345e-06)
(0.00239654 -0.00267243 4.2694e-06)
(0.00239863 -0.00267323 4.26904e-06)
(0.00240391 -0.00267721 9.7343e-07)
(0.00240918 -0.00267686 -2.38608e-06)
(0.00240694 -0.00268189 -2.45051e-06)
(0.00240892 -0.00268267 -3.71029e-06)
(0.00241408 -0.00268231 -6.0526e-06)
(0.00241502 -0.00268196 -7.13535e-06)
(0.00241593 -0.00268161 -7.33118e-06)
(0.00241274 -0.00268127 -8.90618e-06)
(0.00241003 -0.00267736 -1.0285e-05)
(0.00241097 -0.00267703 -1.02849e-05)
(0.00240783 -0.00267672 -1.08433e-05)
(0.00240471 -0.0026764 -1.1596e-05)
(0.00240564 -0.00267609 -1.17909e-05)
(0.00240259 -0.00267176 -1.23498e-05)
(0.00239904 -0.00266694 -1.37884e-05)
(0.0024035 -0.00266613 -1.46685e-05)
(0.00240396 -0.0026693 -1.47467e-05)
(0.00240095 -0.00266904 -1.59601e-05)
(0.00240188 -0.00266484 -1.70946e-05)
(0.00240235 -0.00266406 -1.70945e-05)
(0.00240621 -0.00266666 -1.71253e-05)
(0.00241006 -0.00266538 -1.71648e-05)
(0.00240709 -0.00266512 -1.71739e-05)
(0.00241133 -0.00266437 -1.58786e-05)
(0.00241846 -0.0026664 -1.33043e-05)
(0.00241838 -0.00266895 -1.20251e-05)
(0.00241874 -0.00266817 -1.05099e-05)
(0.00242617 -0.00267068 -4.78667e-06)
(0.00243354 -0.00266942 -5.78809e-07)
(0.00243385 -0.00266865 -2.04341e-07)
(0.00243693 -0.00267432 6.80621e-06)
(0.00244325 -0.00267578 1.34423e-05)
(0.00244673 -0.0026745 1.34423e-05)
(0.00245062 -0.00267739 1.79043e-05)
(0.0024504 -0.00267977 2.30303e-05)
(0.00244927 -0.00267754 2.36935e-05)
(0.00245177 -0.00267891 2.4041e-05)
(0.00245111 -0.00268437 2.45287e-05)
(0.00245043 -0.00268619 2.4668e-05)
(0.00244624 -0.00268445 2.23449e-05)
(0.00243808 -0.00268577 1.83682e-05)
(0.00243705 -0.00269061 1.67149e-05)
(0.00243646 -0.00269237 1.45245e-05)
(0.00243239 -0.00269412 9.96594e-06)
(0.00242793 -0.00269538 7.59812e-06)
(0.00242654 -0.00269961 6.28041e-06)
(0.0024256 -0.00270428 3.00558e-06)
(0.00242466 -0.00270548 1.04829e-06)
(0.00242672 -0.0027062 3.56116e-07)
(0.00242538 -0.00271369 -1.62313e-06)
(0.00242404 -0.00271777 -2.91053e-06)
(0.00242983 -0.00271886 -3.45772e-06)
(0.00243226 -0.00272666 -5.15455e-06)
(0.0024305 -0.00272683 -6.30398e-06)
(0.00243538 -0.00272696 -6.71442e-06)
(0.00244063 -0.00273416 -7.99864e-06)
(0.00243887 -0.00273757 -8.87215e-06)
(0.00244363 -0.00273767 -9.24319e-06)
(0.00245203 -0.00273821 -1.03291e-05)
(0.00245347 -0.00274154 -1.10442e-05)
(0.00245489 -0.00274163 -1.17761e-05)
(0.00245951 -0.0027385 -1.36653e-05)
(0.0024637 -0.00273815 -1.48227e-05)
(0.00246822 -0.00273825 -1.66063e-05)
(0.00247273 -0.00273834 -2.0506e-05)
(0.00247325 -0.00273757 -2.26224e-05)
(0.00247377 -0.00273369 -2.49527e-05)
(0.00247195 -0.00273378 -2.91829e-05)
(0.00247323 -0.00273391 -3.10833e-05)
(0.00247376 -0.002727 -3.21545e-05)
(0.00247118 -0.00272322 -3.37602e-05)
(0.00247208 -0.00272296 -3.42947e-05)
(0.00246652 -0.00272229 -3.44976e-05)
(0.002464 -0.00272162 -3.47493e-05)
(0.00246456 -0.00271796 -3.4798e-05)
(0.00245573 -0.0027169 -3.43266e-05)
(0.00245032 -0.00271926 -3.38393e-05)
(0.00244795 -0.00271565 -3.36361e-05)
(0.00244559 -0.00271502 -3.24121e-05)
(0.00244327 -0.0027203 -3.13755e-05)