/*--------------------------------*- C++ -*----------------------------------*\
| =========                 |                                                 |
| \\      /  F ield         | OpenFOAM: The Open Source CFD Toolbox           |
|  \\    /   O peration     | Version:  v1806                                 |
|   \\  /    A nd           | Web:      www.OpenFOAM.com                      |
|    \\/     M anipulation  |                                                 |
\*---------------------------------------------------------------------------*/
FoamFile
{
    version     2.0;
    format      ascii;
    class       volScalarField;
    location    "10000";
    object      epsilon;
}
// * * * * * * * * * * * * * * * * * * * * * * * * * * * * * * * * * * * * * //

dimensions      [0 2 -3 0 0 0 0];


internalField   nonuniform List<scalar> 
1025
(
0.000786138
0.00237695
0.00398477
0.00560903
0.00724958
0.00890639
0.0105796
0.0122695
0.0139768
0.0157017
0.017444
0.0192023
0.0209744
0.0227572
0.0245463
0.0263357
0.0281167
0.0298779
0.0316043
0.0332768
0.0348732
0.0363698
0.0377443
0.0389782
0.0400589
0.0409811
0.0417462
0.0423616
0.042839
0.0431929
0.043439
0.0435932
0.0436707
0.0436852
0.0436489
0.0435723
0.0434645
0.0433326
0.0431829
0.0430202
0.0428486
0.0426711
0.0424903
0.0423083
0.0421264
0.041946
0.041768
0.041593
0.0414217
0.0412544
0.0410913
0.0409327
0.0407787
0.0406294
0.0404848
0.0403448
0.0402094
0.0400787
0.0399525
0.0398307
0.0397132
0.0396
0.039491
0.039386
0.039285
0.0391878
0.0390944
0.0390047
0.0389185
0.0388358
0.0387564
0.0386804
0.0386075
0.0385378
0.038471
0.0384072
0.0383463
0.0382882
0.0382328
0.03818
0.0381298
0.0380822
0.038037
0.0379942
0.0379537
0.0379155
0.0378795
0.0378456
0.0378139
0.0377843
0.0377567
0.037731
0.0377073
0.0376854
0.0376654
0.0376472
0.0376307
0.037616
0.0376029
0.0375915
0.0375817
0.0375734
0.0375668
0.0375616
0.0375579
0.0375556
0.0375548
0.0375553
0.0375573
0.0375605
0.0375651
0.0375709
0.037578
0.0375864
0.0375959
0.0376066
0.0376185
0.0376316
0.0376457
0.037661
0.0376773
0.0376947
0.0377132
0.0377326
0.0377531
0.0377745
0.0377969
0.0378203
0.0378445
0.0378697
0.0378958
0.0379228
0.0379506
0.0379793
0.0380088
0.0380392
0.0380703
0.0381023
0.038135
0.0381685
0.0382027
0.0382377
0.0382734
0.0383098
0.0383469
0.0383846
0.0384231
0.0384622
0.038502
0.0385424
0.0385835
0.0386251
0.0386674
0.0387102
0.0387537
0.0387977
0.0388423
0.0388874
0.0389331
0.0389793
0.0390261
0.0390733
0.0391211
0.0391694
0.0392181
0.0392673
0.039317
0.0393672
0.0394178
0.0394689
0.0395204
0.0395723
0.0396247
0.0396774
0.0397306
0.0397841
0.0398381
0.0398924
0.0399471
0.0400022
0.0400576
0.0401134
0.0401695
0.040226
0.0402828
0.0403399
0.0403974
0.0404552
0.0405132
0.0405715
0.0406302
0.0406891
0.0407483
0.0408078
0.0408676
0.0409276
0.0409879
0.0410484
0.0411092
0.0411702
0.0412314
0.0412929
0.0413545
0.0414165
0.0414786
0.0415409
0.0416034
0.0416661
0.041729
0.0417921
0.0418553
0.0419188
0.0419824
0.0420461
0.0421101
0.0421742
0.0422384
0.0423027
0.0423672
0.0424319
0.0424967
0.0425616
0.0426266
0.0426917
0.042757
0.0428224
0.0428879
0.0429534
0.0430191
0.0430849
0.0431507
0.0432166
0.0432827
0.0433488
0.0434149
0.0434812
0.0435474
0.0436138
0.0436802
0.0437467
0.0438132
0.0438798
0.0439464
0.044013
0.0440797
0.0441464
0.0442132
0.0442799
0.0443467
0.0444135
0.0444803
0.0445472
0.044614
0.0446808
0.0447477
0.0448146
0.0448814
0.0449483
0.0450151
0.0450819
0.0451487
0.0452155
0.0452822
0.045349
0.0454157
0.0454823
0.045549
0.0456156
0.0456821
0.0457487
0.0458151
0.0458816
0.045948
0.0460143
0.0460805
0.0461468
0.0462129
0.046279
0.0463451
0.046411
0.0464769
0.0465427
0.0466085
0.0466742
0.0467398
0.0468053
0.0468707
0.046936
0.0470013
0.0470665
0.0471315
0.0471965
0.0472614
0.0473262
0.0473909
0.0474555
0.0475199
0.0475843
0.0476486
0.0477127
0.0477768
0.0478407
0.0479045
0.0479682
0.0480317
0.0480952
0.0481585
0.0482217
0.0482847
0.0483477
0.0484105
0.0484731
0.0485357
0.0485981
0.0486603
0.0487225
0.0487844
0.0488463
0.048908
0.0489695
0.0490309
0.0490922
0.0491533
0.0492142
0.049275
0.0493356
0.0493961
0.0494564
0.0495165
0.0495765
0.0496364
0.049696
0.0497555
0.0498149
0.049874
0.049933
0.0499918
0.0500504
0.0501089
0.0501672
0.0502253
0.0502833
0.050341
0.0503986
0.050456
0.0505132
0.0505702
0.050627
0.0506836
0.0507401
0.0507964
0.0508524
0.0509083
0.050964
0.0510195
0.0510747
0.0511298
0.0511847
0.0512394
0.0512939
0.0513482
0.0514023
0.0514561
0.0515098
0.0515633
0.0516165
0.0516695
0.0517224
0.051775
0.0518274
0.0518796
0.0519315
0.0519833
0.0520348
0.0520861
0.0521372
0.0521881
0.0522387
0.0522892
0.0523394
0.0523893
0.0524391
0.0524886
0.0525379
0.0525869
0.0526358
0.0526843
0.0527327
0.0527808
0.0528287
0.0528763
0.0529237
0.0529709
0.0530178
0.0530645
0.053111
0.0531572
0.0532031
0.0532488
0.0532943
0.0533395
0.0533844
0.0534291
0.0534736
0.0535178
0.0535617
0.0536054
0.0536488
0.053692
0.0537349
0.0537776
0.05382
0.0538621
0.053904
0.0539456
0.0539869
0.054028
0.0540688
0.0541093
0.0541496
0.0541895
0.0542293
0.0542687
0.0543079
0.0543467
0.0543853
0.0544237
0.0544617
0.0544995
0.054537
0.0545742
0.0546111
0.0546477
0.0546841
0.0547201
0.0547559
0.0547913
0.0548265
0.0548614
0.054896
0.0549303
0.0549643
0.054998
0.0550313
0.0550644
0.0550972
0.0551297
0.0551619
0.0551937
0.0552253
0.0552565
0.0552875
0.0553181
0.0553484
0.0553784
0.0554081
0.0554375
0.0554665
0.0554952
0.0555236
0.0555517
0.0555794
0.0556068
0.0556339
0.0556607
0.0556871
0.0557132
0.055739
0.0557644
0.0557895
0.0558143
0.0558387
0.0558628
0.0558865
0.0559099
0.0559329
0.0559556
0.0559779
0.0559999
0.0560216
0.0560428
0.0560638
0.0560843
0.0561046
0.0561244
0.0561439
0.056163
0.0561818
0.0562002
0.0562182
0.0562359
0.0562532
0.0562701
0.0562866
0.0563028
0.0563186
0.056334
0.056349
0.0563636
0.0563779
0.0563917
0.0564052
0.0564183
0.056431
0.0564433
0.0564552
0.0564667
0.0564778
0.0564886
0.0564989
0.0565088
0.0565183
0.0565274
0.0565361
0.0565444
0.0565522
0.0565597
0.0565667
0.0565734
0.0565796
0.0565853
0.0565907
0.0565956
0.0566001
0.0566042
0.0566078
0.056611
0.0566138
0.0566161
0.056618
0.0566194
0.0566204
0.056621
0.0566211
0.0566208
0.05662
0.0566187
0.056617
0.0566149
0.0566123
0.0566092
0.0566057
0.0566017
0.0565972
0.0565923
0.0565869
0.056581
0.0565747
0.0565679
0.0565606
0.0565528
0.0565446
0.0565358
0.0565266
0.0565169
0.0565067
0.0564961
0.0564849
0.0564732
0.0564611
0.0564484
0.0564353
0.0564216
0.0564075
0.0563928
0.0563776
0.056362
0.0563458
0.0563291
0.0563119
0.0562942
0.0562759
0.0562572
0.0562379
0.0562181
0.0561978
0.0561769
0.0561556
0.0561337
0.0561112
0.0560883
0.0560648
0.0560407
0.0560161
0.055991
0.0559654
0.0559392
0.0559124
0.0558851
0.0558573
0.0558289
0.0558
0.0557705
0.0557404
0.0557098
0.0556786
0.0556469
0.0556146
0.0555818
0.0555484
0.0555144
0.0554799
0.0554448
0.0554091
0.0553728
0.055336
0.0552986
0.0552606
0.055222
0.0551829
0.0551432
0.0551029
0.055062
0.0550205
0.0549785
0.0549358
0.0548926
0.0548487
0.0548043
0.0547593
0.0547137
0.0546675
0.0546207
0.0545733
0.0545253
0.0544767
0.0544275
0.0543776
0.0543272
0.0542762
0.0542246
0.0541723
0.0541195
0.0540661
0.054012
0.0539573
0.053902
0.0538461
0.0537896
0.0537324
0.0536747
0.0536163
0.0535573
0.0534977
0.0534375
0.0533766
0.0533151
0.053253
0.0531903
0.0531269
0.053063
0.0529984
0.0529331
0.0528673
0.0528008
0.0527337
0.0526659
0.0525975
0.0525285
0.0524589
0.0523886
0.0523177
0.0522462
0.052174
0.0521012
0.0520278
0.0519537
0.051879
0.0518037
0.0517277
0.0516511
0.0515738
0.051496
0.0514174
0.0513383
0.0512585
0.051178
0.051097
0.0510153
0.050933
0.05085
0.0507664
0.0506821
0.0505972
0.0505117
0.0504256
0.0503388
0.0502514
0.0501634
0.0500747
0.0499853
0.0498954
0.0498048
0.0497136
0.0496217
0.0495292
0.0494361
0.0493423
0.049248
0.0491529
0.0490573
0.0489611
0.0488641
0.0487666
0.0486685
0.0485697
0.0484703
0.0483703
0.0482696
0.0481683
0.0480665
0.047964
0.0478609
0.0477572
0.0476528
0.0475478
0.0474422
0.047336
0.0472293
0.0471218
0.0470138
0.0469052
0.0467959
0.0466861
0.0465757
0.0464646
0.046353
0.0462407
0.0461279
0.0460144
0.0459004
0.0457858
0.0456706
0.0455548
0.0454384
0.0453214
0.0452038
0.0450857
0.044967
0.0448477
0.0447279
0.0446074
0.0444864
0.0443648
0.0442427
0.04412
0.0439968
0.043873
0.0437486
0.0436236
0.0434982
0.0433721
0.0432455
0.0431184
0.0429908
0.0428625
0.0427338
0.0426046
0.0424748
0.0423444
0.0422135
0.0420822
0.0419504
0.0418179
0.041685
0.0415516
0.0414176
0.0412832
0.0411482
0.0410128
0.0408768
0.0407404
0.0406035
0.0404661
0.0403283
0.0401899
0.0400511
0.0399118
0.039772
0.0396318
0.0394911
0.03935
0.0392084
0.0390664
0.0389239
0.0387809
0.0386376
0.0384938
0.0383496
0.0382049
0.0380599
0.0379144
0.0377685
0.0376222
0.0374755
0.0373284
0.0371809
0.037033
0.0368847
0.0367361
0.036587
0.0364377
0.0362879
0.0361377
0.0359872
0.0358364
0.0356852
0.0355337
0.0353819
0.0352296
0.0350771
0.0349243
0.0347711
0.0346176
0.0344638
0.0343097
0.0341553
0.0340006
0.0338456
0.0336903
0.0335348
0.033379
0.033223
0.0330666
0.03291
0.0327532
0.0325962
0.0324388
0.0322813
0.0321235
0.0319656
0.0318073
0.0316489
0.0314903
0.0313315
0.0311725
0.0310134
0.0308541
0.0306946
0.0305349
0.0303751
0.0302151
0.030055
0.0298947
0.0297344
0.0295739
0.0294133
0.0292525
0.0290917
0.0289308
0.0287698
0.0286087
0.0284476
0.0282863
0.0281251
0.0279637
0.0278023
0.0276409
0.0274795
0.0273181
0.0271566
0.0269951
0.0268337
0.0266722
0.0265108
0.0263494
0.026188
0.0260267
0.0258654
0.0257042
0.0255431
0.0253821
0.0252211
0.0250602
0.0248994
0.0247387
0.0245782
0.0244178
0.0242576
0.0240974
0.0239375
0.0237777
0.0236181
0.0234587
0.0232994
0.0231404
0.0229816
0.022823
0.0226647
0.0225066
0.0223487
0.0221911
0.0220339
0.0218768
0.0217201
0.0215637
0.0214076
0.0212518
0.0210964
0.0209413
0.0207866
0.0206322
0.0204783
0.0203247
0.0201715
0.0200188
0.0198664
0.0197146
0.0195631
0.0194121
0.0192616
0.0191116
0.0189621
0.0188131
0.0186646
0.0185167
0.0183693
0.0182224
0.0180761
0.0179304
0.0177854
0.0176409
0.017497
0.0173537
0.0172111
0.0170692
0.0169279
0.0167874
0.0166475
0.0165083
0.0163699
0.0162322
0.0160953
0.0159591
0.0158237
0.0156891
0.0155553
0.0154223
0.0152902
0.0151589
0.0150285
0.014899
0.0147704
0.0146426
0.0145158
0.0143899
0.014265
0.014141
0.014018
0.013896
0.0137751
0.0136551
0.0135362
0.0134183
0.0133015
0.0131857
0.0130711
0.0129576
0.0128452
0.0127339
0.0126238
0.0125148
0.0124071
0.0123005
0.0121952
0.0120911
0.0119882
0.0118866
0.0117862
0.0116872
0.0115894
0.011493
0.0113979
0.0113041
0.0112117
0.0111207
0.011031
0.0109428
0.010856
0.0107707
0.0106868
0.0106043
0.0105233
0.0104439
0.0103659
0.0102895
0.0102146
0.0101413
0.0100695
0.00999934
0.00993079
0.00986385
0.00979856
0.00973492
0.00967295
0.00961267
0.0095541
0.00949725
0.00944213
0.00938877
0.00933719
0.0092874
0.00923942
0.00919327
0.00914897
0.00910655
0.00906602
0.00902739
0.00899069
0.00895595
0.00892318
0.00889241
0.00886365
0.00883694
0.00881231
0.00878976
0.00876934
0.00875106
0.00873496
0.00872106
0.0087094
0.00869999
0.00869288
0.00868809
0.00868566
)
;

boundaryField
{
    INLET
    {
        type            cyclic;
    }
    OUTLET
    {
        type            cyclic;
    }
    CENTER
    {
        type            symmetryPlane;
    }
    WALL
    {
        type            fixedValue;
        value           uniform 1e-08;
    }
    frontAndBackPlanes
    {
        type            empty;
    }
}


// ************************************************************************* //
