/*--------------------------------*- C++ -*----------------------------------*\
| =========                 |                                                 |
| \\      /  F ield         | OpenFOAM: The Open Source CFD Toolbox           |
|  \\    /   O peration     | Version:  v1806                                 |
|   \\  /    A nd           | Web:      www.OpenFOAM.com                      |
|    \\/     M anipulation  |                                                 |
\*---------------------------------------------------------------------------*/
FoamFile
{
    version     2.0;
    format      ascii;
    class       volVectorField;
    location    "10000";
    object      grad(k);
}
// * * * * * * * * * * * * * * * * * * * * * * * * * * * * * * * * * * * * * //

dimensions      [0 1 -2 0 0 0 0];


internalField   nonuniform List<vector> 
1025
(
(0 0.335018 0)
(0 0.92638 0)
(0 1.61582 0)
(-5.29226e-19 2.31188 0)
(0 3.01401 0)
(0 3.72139 0)
(-1.04363e-18 4.43285 0)
(0 5.14664 0)
(2.06774e-18 5.86028 0)
(0 6.57017 0)
(0 7.2712 0)
(0 7.95618 0)
(0 8.6152 0)
(-4.03956e-18 9.2352 0)
(-8.04122e-18 9.7998 0)
(0 10.2899 0)
(-7.96611e-18 10.6852 0)
(0 10.9676 0)
(0 11.1238 0)
(0 11.149 0)
(0 11.0477 0)
(0 10.8332 0)
(0 10.5245 0)
(0 10.1439 0)
(1.53444e-17 9.71323 0)
(1.52722e-17 9.2527 0)
(0 8.77935 0)
(0 8.30678 0)
(0 7.84534 0)
(0 7.40238 0)
(0 6.98269 0)
(0 6.58912 0)
(0 6.22287 0)
(-1.47087e-17 5.88395 0)
(0 5.57168 0)
(0 5.28479 0)
(0 5.02167 0)
(0 4.78055 0)
(-1.4367e-17 4.55962 0)
(0 4.35715 0)
(0 4.17145 0)
(0 4.00094 0)
(-1.41007e-17 3.84417 0)
(2.80698e-17 3.69982 0)
(0 3.5667 0)
(-2.78044e-17 3.44372 0)
(-2.76765e-17 3.32991 0)
(0 3.22442 0)
(0 3.12646 0)
(0 3.03534 0)
(0 2.95043 0)
(2.70376e-17 2.87119 0)
(0 2.79712 0)
(-2.67859e-17 2.72777 0)
(0 2.66274 0)
(0 2.60168 0)
(0 2.54425 0)
(0 2.49018 0)
(0 2.4392 0)
(-2.60376e-17 2.39108 0)
(0 2.34559 0)
(0 2.30254 0)
(-2.56739e-17 2.26176 0)
(0 2.22309 0)
(0 2.18637 0)
(2.53154e-17 2.15148 0)
(0 2.11829 0)
(0 2.0867 0)
(-2.49574e-17 2.05658 0)
(-2.48449e-17 2.02786 0)
(-2.47242e-17 2.00044 0)
(0 1.97425 0)
(0 1.94921 0)
(4.87563e-17 1.92525 0)
(0 1.9023 0)
(0 1.88032 0)
(0 1.85924 0)
(0 1.83902 0)
(0 1.8196 0)
(0 1.80095 0)
(0 1.78302 0)
(-4.69572e-17 1.76577 0)
(-2.33749e-17 1.74917 0)
(0 1.73319 0)
(0 1.71779 0)
(0 1.70295 0)
(0 1.68863 0)
(0 1.67482 0)
(0 1.66148 0)
(0 1.64859 0)
(0 1.63615 0)
(0 1.62411 0)
(0 1.61247 0)
(0 1.6012 0)
(0 1.59029 0)
(-2.19849e-17 1.57973 0)
(-4.37734e-17 1.56949 0)
(0 1.55957 0)
(0 1.54995 0)
(-4.31596e-17 1.54061 0)
(0 1.53155 0)
(0 1.52275 0)
(0 1.5142 0)
(0 1.5059 0)
(0 1.49783 0)
(0 1.48997 0)
(0 1.48234 0)
(4.15603e-17 1.47491 0)
(0 1.46767 0)
(0 1.46062 0)
(0 1.45375 0)
(0 1.44706 0)
(-4.05978e-17 1.44054 0)
(4.04119e-17 1.43417 0)
(4.02215e-17 1.42796 0)
(0 1.4219 0)
(0 1.41599 0)
(-3.9661e-17 1.41021 0)
(0 1.40456 0)
(0 1.39904 0)
(0 1.39365 0)
(0 1.38837 0)
(0 1.3832 0)
(0 1.37815 0)
(0 1.3732 0)
(0 1.36835 0)
(0 1.3636 0)
(-3.7841e-17 1.35895 0)
(3.7658e-17 1.35438 0)
(-3.74873e-17 1.34991 0)
(0 1.34552 0)
(-3.71349e-17 1.34121 0)
(0 1.33698 0)
(0 1.33282 0)
(0 1.32874 0)
(-3.64447e-17 1.32473 0)
(0 1.32079 0)
(-3.61017e-17 1.31691 0)
(0 1.3131 0)
(3.57651e-17 1.30935 0)
(0 1.30565 0)
(0 1.30202 0)
(3.52648e-17 1.29844 0)
(0 1.29491 0)
(-3.49344e-17 1.29143 0)
(0 1.288 0)
(0 1.28462 0)
(0 1.28129 0)
(0 1.278 0)
(-3.41281e-17 1.27475 0)
(0 1.27154 0)
(0 1.26838 0)
(-3.36466e-17 1.26525 0)
(0 1.26216 0)
(0 1.2591 0)
(0 1.25608 0)
(3.30212e-17 1.25309 0)
(0 1.25014 0)
(6.54221e-17 1.24721 0)
(-3.25622e-17 1.24432 0)
(0 1.24145 0)
(0 1.23861 0)
(0 1.2358 0)
(0 1.23301 0)
(0 1.23025 0)
(0 1.22751 0)
(0 1.22479 0)
(0 1.2221 0)
(0 1.21942 0)
(-3.10824e-17 1.21678 0)
(0 1.21415 0)
(0 1.21153 0)
(0 1.20892 0)
(0 1.20635 0)
(0 1.20379 0)
(0 1.20124 0)
(0 1.19871 0)
(5.98187e-17 1.1962 0)
(0 1.19369 0)
(5.92828e-17 1.19121 0)
(-5.90185e-17 1.18873 0)
(0 1.18628 0)
(0 1.18383 0)
(-5.81753e-17 1.18139 0)
(0 1.17896 0)
(0 1.17654 0)
(0 1.17413 0)
(-5.71085e-17 1.17174 0)
(0 1.16936 0)
(0 1.16698 0)
(0 1.16461 0)
(0 1.16224 0)
(0 1.15989 0)
(0 1.15754 0)
(0 1.1552 0)
(5.50307e-17 1.15287 0)
(5.46896e-17 1.15054 0)
(0 1.14822 0)
(0 1.1459 0)
(0 1.14359 0)
(0 1.14128 0)
(0 1.13899 0)
(0 1.13669 0)
(0 1.1344 0)
(0 1.13211 0)
(0 1.12982 0)
(0 1.12754 0)
(0 1.12526 0)
(0 1.12299 0)
(0 1.12071 0)
(-5.12484e-17 1.11844 0)
(-5.10015e-17 1.11617 0)
(0 1.11391 0)
(0 1.11165 0)
(0 1.10938 0)
(0 1.10712 0)
(0 1.10486 0)
(0 1.10261 0)
(0 1.10035 0)
(0 1.09809 0)
(0 1.09583 0)
(0 1.09358 0)
(0 1.09133 0)
(0 1.08908 0)
(-4.7996e-17 1.08682 0)
(0 1.08457 0)
(0 1.08231 0)
(4.73097e-17 1.08006 0)
(-4.70993e-17 1.0778 0)
(0 1.07555 0)
(0 1.07329 0)
(0 1.07104 0)
(0 1.06878 0)
(0 1.06652 0)
(-9.15909e-17 1.06426 0)
(-1.36795e-16 1.06201 0)
(0 1.05975 0)
(0 1.05749 0)
(0 1.05523 0)
(-4.47125e-17 1.05296 0)
(-8.90489e-17 1.0507 0)
(0 1.04843 0)
(0 1.04616 0)
(0 1.04389 0)
(8.74311e-17 1.04162 0)
(0 1.03935 0)
(0 1.03708 0)
(0 1.0348 0)
(0 1.03252 0)
(8.53864e-17 1.03025 0)
(0 1.02796 0)
(0 1.02568 0)
(0 1.0234 0)
(8.37651e-17 1.02111 0)
(0 1.01882 0)
(-4.14887e-17 1.01653 0)
(0 1.01423 0)
(0 1.01194 0)
(-8.18231e-17 1.00964 0)
(-4.07227e-17 1.00735 0)
(-1.21607e-16 1.00505 0)
(0 1.00274 0)
(-8.02723e-17 1.00044 0)
(0 0.998126 0)
(0 0.995816 0)
(0 0.993506 0)
(0 0.991192 0)
(0 0.988875 0)
(0 0.986557 0)
(-7.76809e-17 0.984236 0)
(0 0.981913 0)
(0 0.979586 0)
(0 0.977258 0)
(0 0.97493 0)
(0 0.9726 0)
(0 0.970265 0)
(0 0.967928 0)
(0 0.965589 0)
(0 0.963246 0)
(0 0.960901 0)
(-1.47567e-16 0.958556 0)
(-7.34252e-17 0.956206 0)
(0 0.953853 0)
(-7.27692e-17 0.9515 0)
(0 0.949147 0)
(0 0.946791 0)
(-7.17338e-17 0.944431 0)
(0 0.942069 0)
(0 0.939705 0)
(-7.07275e-17 0.937338 0)
(-7.03984e-17 0.93497 0)
(0 0.932599 0)
(0 0.930227 0)
(0 0.927851 0)
(0 0.925474 0)
(0 0.923095 0)
(0 0.920713 0)
(0 0.918331 0)
(0 0.915945 0)
(0 0.913556 0)
(-6.71822e-17 0.911167 0)
(0 0.908776 0)
(0 0.906382 0)
(0 0.903987 0)
(0 0.901589 0)
(0 0.89919 0)
(0 0.896789 0)
(-6.49964e-17 0.894387 0)
(-6.46788e-17 0.891982 0)
(0 0.889575 0)
(0 0.887168 0)
(0 0.884758 0)
(0 0.882345 0)
(0 0.879932 0)
(0 0.877516 0)
(0 0.875099 0)
(0 0.872681 0)
(0 0.87026 0)
(-6.17371e-17 0.867837 0)
(0 0.865413 0)
(0 0.862988 0)
(-6.08501e-17 0.860561 0)
(0 0.858132 0)
(0 0.855702 0)
(0 0.853272 0)
(0 0.85084 0)
(0 0.848405 0)
(0 0.845971 0)
(0 0.843534 0)
(-5.85939e-17 0.841094 0)
(0 0.838654 0)
(0 0.836214 0)
(0 0.83377 0)
(0 0.831328 0)
(0 0.828885 0)
(-5.69855e-17 0.82644 0)
(0 0.823992 0)
(0 0.821544 0)
(0 0.819095 0)
(0 0.816643 0)
(0 0.814192 0)
(0 0.81174 0)
(0 0.809287 0)
(-5.48881e-17 0.806833 0)
(-1.09266e-16 0.804379 0)
(0 0.801923 0)
(0 0.799466 0)
(0 0.797008 0)
(-1.07219e-16 0.794551 0)
(0 0.792092 0)
(0 0.789631 0)
(1.05721e-16 0.787169 0)
(1.05248e-16 0.784707 0)
(0 0.782245 0)
(0 0.779783 0)
(0 0.777319 0)
(0 0.774854 0)
(-1.02795e-16 0.772388 0)
(0 0.769923 0)
(0 0.767458 0)
(0 0.764991 0)
(0 0.762524 0)
(0 0.760057 0)
(0 0.757589 0)
(0 0.755121 0)
(0 0.752652 0)
(0 0.750184 0)
(-9.80816e-17 0.747715 0)
(-1.95169e-16 0.745245 0)
(0 0.742775 0)
(0 0.740305 0)
(0 0.737835 0)
(-9.57749e-17 0.735364 0)
(0 0.732892 0)
(9.49163e-17 0.730422 0)
(0 0.727952 0)
(9.40312e-17 0.725481 0)
(-9.35741e-17 0.723011 0)
(0 0.720539 0)
(0 0.718068 0)
(-9.22694e-17 0.715598 0)
(0 0.713127 0)
(0 0.710656 0)
(0 0.708184 0)
(0 0.705714 0)
(0 0.703243 0)
(0 0.700772 0)
(8.92741e-17 0.698301 0)
(0 0.69583 0)
(-8.84537e-17 0.693361 0)
(-8.80492e-17 0.690892 0)
(-8.7612e-17 0.688423 0)
(0 0.685954 0)
(0 0.683485 0)
(-8.63967e-17 0.681016 0)
(-8.59757e-17 0.678548 0)
(0 0.67608 0)
(0 0.673613 0)
(0 0.671147 0)
(-8.43658e-17 0.668681 0)
(8.39977e-17 0.666214 0)
(0 0.663749 0)
(0 0.661284 0)
(8.28151e-17 0.65882 0)
(0 0.656356 0)
(0 0.653893 0)
(0 0.651431 0)
(0 0.64897 0)
(0 0.646509 0)
(0 0.644048 0)
(0 0.641589 0)
(-7.97583e-17 0.63913 0)
(-7.93994e-17 0.636672 0)
(0 0.634215 0)
(0 0.631757 0)
(0 0.629301 0)
(0 0.626846 0)
(0 0.624393 0)
(0 0.62194 0)
(0 0.619488 0)
(0 0.617036 0)
(-7.61173e-17 0.614585 0)
(0 0.612136 0)
(0 0.609687 0)
(0 0.60724 0)
(0 0.604794 0)
(-7.43533e-17 0.602348 0)
(0 0.599904 0)
(0 0.59746 0)
(0 0.595017 0)
(-7.29698e-17 0.592577 0)
(0 0.590138 0)
(-1.44545e-16 0.5877 0)
(0 0.585262 0)
(0 0.582825 0)
(-7.12751e-17 0.58039 0)
(0 0.577957 0)
(0 0.575525 0)
(0 0.573094 0)
(0 0.570664 0)
(0 0.568235 0)
(-1.3854e-16 0.565808 0)
(1.37953e-16 0.563382 0)
(0 0.560958 0)
(0 0.558534 0)
(0 0.556113 0)
(1.35352e-16 0.553693 0)
(0 0.551275 0)
(0 0.548858 0)
(0 0.546443 0)
(-1.32847e-16 0.544028 0)
(0 0.541616 0)
(0 0.539205 0)
(0 0.536796 0)
(-2.60706e-16 0.534387 0)
(0 0.531981 0)
(1.2916e-16 0.529578 0)
(0 0.527175 0)
(-2.55824e-16 0.524774 0)
(-1.27335e-16 0.522374 0)
(0 0.519976 0)
(0 0.517581 0)
(-1.25561e-16 0.515187 0)
(0 0.512794 0)
(0 0.510403 0)
(0 0.508014 0)
(0 0.505628 0)
(0 0.503243 0)
(-1.22051e-16 0.50086 0)
(0 0.498479 0)
(-1.20936e-16 0.4961 0)
(0 0.493723 0)
(0 0.491347 0)
(0 0.488973 0)
(-1.18665e-16 0.486601 0)
(0 0.484232 0)
(-1.17546e-16 0.481865 0)
(0 0.4795 0)
(0 0.477136 0)
(-1.15937e-16 0.474775 0)
(1.15368e-16 0.472417 0)
(0 0.47006 0)
(0 0.467705 0)
(0 0.465353 0)
(0 0.463002 0)
(0 0.460653 0)
(0 0.458308 0)
(-2.23256e-16 0.455964 0)
(0 0.453623 0)
(0 0.451283 0)
(-1.1009e-16 0.448946 0)
(0 0.446612 0)
(-1.09041e-16 0.44428 0)
(0 0.441949 0)
(0 0.439622 0)
(0 0.437297 0)
(0 0.434974 0)
(0 0.432654 0)
(0 0.430337 0)
(0 0.428021 0)
(1.05039e-16 0.425708 0)
(0 0.423398 0)
(0 0.42109 0)
(0 0.418785 0)
(0 0.416483 0)
(-1.02596e-16 0.414185 0)
(0 0.411889 0)
(0 0.409598 0)
(1.01175e-16 0.407312 0)
(0 0.40503 0)
(1.00217e-16 0.402752 0)
(0 0.400479 0)
(-9.92772e-17 0.398228 0)
(-9.88139e-17 0.395975 0)
(-9.8355e-17 0.393702 0)
(0 0.39143 0)
(0 0.389158 0)
(0 0.386889 0)
(-9.6517e-17 0.384623 0)
(0 0.382358 0)
(0 0.380097 0)
(-2.85517e-16 0.377838 0)
(0 0.375582 0)
(0 0.373328 0)
(-2.81531e-16 0.371078 0)
(0 0.368831 0)
(-9.2958e-17 0.366587 0)
(0 0.364346 0)
(0 0.362108 0)
(0 0.359873 0)
(0 0.357641 0)
(0 0.355412 0)
(0 0.353187 0)
(0 0.350965 0)
(-8.95194e-17 0.348746 0)
(1.78248e-16 0.34653 0)
(0 0.344317 0)
(0 0.342108 0)
(0 0.339901 0)
(-1.74898e-16 0.337698 0)
(0 0.335499 0)
(1.73253e-16 0.333303 0)
(0 0.33111 0)
(0 0.328921 0)
(1.70842e-16 0.326734 0)
(0 0.324552 0)
(0 0.322373 0)
(0 0.320197 0)
(0 0.318025 0)
(0 0.315857 0)
(0 0.313692 0)
(0 0.311531 0)
(0 0.309374 0)
(0 0.307219 0)
(0 0.305067 0)
(0 0.302919 0)
(0 0.300778 0)
(-1.60727e-16 0.29864 0)
(0 0.296502 0)
(0 0.294368 0)
(1.5862e-16 0.29224 0)
(-1.57734e-16 0.290117 0)
(0 0.287994 0)
(0 0.285876 0)
(-1.55419e-16 0.283761 0)
(-1.54851e-16 0.281651 0)
(0 0.279548 0)
(1.53171e-16 0.277446 0)
(0 0.275347 0)
(0 0.273254 0)
(0 0.271166 0)
(0 0.26908 0)
(-2.99305e-16 0.266996 0)
(0 0.264917 0)
(0 0.262843 0)
(0 0.260774 0)
(-1.47054e-16 0.25871 0)
(-1.46292e-16 0.256648 0)
(-2.91077e-16 0.25459 0)
(0 0.252536 0)
(0 0.250488 0)
(0 0.248443 0)
(0 0.246401 0)
(0 0.244365 0)
(-2.83289e-16 0.242334 0)
(0 0.240307 0)
(0 0.238283 0)
(2.79088e-16 0.236263 0)
(0 0.234246 0)
(0 0.232236 0)
(0 0.230231 0)
(0 0.228229 0)
(2.72796e-16 0.22623 0)
(0 0.224238 0)
(0 0.222249 0)
(0 0.220265 0)
(0 0.218286 0)
(-1.33181e-16 0.216311 0)
(-2.65528e-16 0.214342 0)
(0 0.212378 0)
(-1.31323e-16 0.210417 0)
(0 0.20846 0)
(0 0.206508 0)
(0 0.204561 0)
(1.28924e-16 0.202619 0)
(0 0.20068 0)
(0 0.198747 0)
(0 0.196818 0)
(0 0.194895 0)
(-2.51719e-16 0.192977 0)
(0 0.191063 0)
(1.24747e-16 0.189154 0)
(-1.24198e-16 0.187251 0)
(-1.23474e-16 0.185352 0)
(0 0.183458 0)
(-3.67211e-16 0.18157 0)
(2.434e-16 0.179684 0)
(0 0.177804 0)
(-2.4132e-16 0.175931 0)
(-2.40293e-16 0.174061 0)
(1.19469e-16 0.172196 0)
(0 0.170337 0)
(0 0.168484 0)
(0 0.166635 0)
(0 0.16479 0)
(-1.16832e-16 0.162951 0)
(0 0.161117 0)
(-1.15715e-16 0.159289 0)
(0 0.157467 0)
(0 0.155649 0)
(0 0.153836 0)
(0 0.152028 0)
(0 0.150226 0)
(-1.12488e-16 0.14843 0)
(0 0.146638 0)
(1.11452e-16 0.144851 0)
(0 0.14307 0)
(0 0.141295 0)
(-1.09862e-16 0.139525 0)
(0 0.13776 0)
(0 0.136 0)
(0 0.134247 0)
(0 0.132499 0)
(0 0.130758 0)
(0 0.129021 0)
(-2.12555e-16 0.127289 0)
(0 0.125563 0)
(-2.10443e-16 0.123842 0)
(-2.09662e-16 0.122126 0)
(-2.08886e-16 0.120418 0)
(0 0.118714 0)
(0 0.117017 0)
(0 0.115324 0)
(0 0.113637 0)
(0 0.111956 0)
(0 0.110281 0)
(-2.01915e-16 0.108612 0)
(0 0.106948 0)
(0 0.10529 0)
(0 0.103639 0)
(-1.98136e-16 0.101994 0)
(-1.97214e-16 0.100353 0)
(0 0.0987183 0)
(0 0.0970897 0)
(-1.94497e-16 0.0954671 0)
(-1.93608e-16 0.0938506 0)
(0 0.0922402 0)
(0 0.0906351 0)
(0 0.0890363 0)
(0 0.0874437 0)
(0 0.0858566 0)
(-1.8823e-16 0.0842759 0)
(0 0.0827016 0)
(0 0.081133 0)
(-1.85549e-16 0.07957 0)
(0 0.0780136 0)
(0 0.076463 0)
(0 0.0749183 0)
(0 0.0733802 0)
(-1.81378e-16 0.0718489 0)
(0 0.0703236 0)
(0 0.0688036 0)
(0 0.0672897 0)
(0 0.0657826 0)
(0 0.0642818 0)
(0 0.0627872 0)
(-1.75369e-16 0.061299 0)
(0 0.059817 0)
(0 0.0583414 0)
(0 0.0568716 0)
(0 0.0554083 0)
(0 0.0539514 0)
(0 0.0525011 0)
(0 0.0510574 0)
(0 0.0496197 0)
(0 0.048188 0)
(0 0.046763 0)
(-1.66575e-16 0.0453448 0)
(0 0.0439328 0)
(0 0.042527 0)
(-1.64313e-16 0.041128 0)
(0 0.0397359 0)
(0 0.0383496 0)
(-1.61957e-16 0.0369698 0)
(0 0.0355969 0)
(-1.60423e-16 0.0342305 0)
(-1.59667e-16 0.0328706 0)
(0 0.0315172 0)
(-1.58176e-16 0.0301704 0)
(0 0.0288303 0)
(0 0.0274968 0)
(0 0.0261701 0)
(0 0.02485 0)
(0 0.0235366 0)
(0 0.0222297 0)
(0 0.0209291 0)
(0 0.0196355 0)
(-1.51662e-16 0.0183487 0)
(0 0.0170689 0)
(0 0.0157954 0)
(0 0.0145285 0)
(0 0.0132683 0)
(-1.48212e-16 0.0120151 0)
(0 0.0107689 0)
(0 0.00952911 0)
(0 0.008296 0)
(0 0.00707004 0)
(0 0.00585086 0)
(0 0.0046381 0)
(0 0.0034323 0)
(0 0.00223365 0)
(0 0.0010419 0)
(0 -0.000143187 0)
(-1.40703e-16 -0.00132128 0)
(0 -0.00249273 0)
(0 -0.00365729 0)
(-1.38631e-16 -0.0048149 0)
(0 -0.00596582 0)
(0 -0.00710947 0)
(0 -0.00824634 0)
(0 -0.00937618 0)
(0 -0.0104992 0)
(0 -0.0116152 0)
(-1.3413e-16 -0.0127244 0)
(1.33601e-16 -0.0138266 0)
(0 -0.0149216 0)
(0 -0.0160096 0)
(0 -0.0170906 0)
(0 -0.0181649 0)
(0 -0.0192321 0)
(0 -0.0202918 0)
(-2.58439e-16 -0.0213448 0)
(0 -0.0223909 0)
(0 -0.02343 0)
(-1.27469e-16 -0.0244618 0)
(0 -0.0254866 0)
(0 -0.0265043 0)
(-1.25673e-16 -0.0275147 0)
(1.25023e-16 -0.0285184 0)
(0 -0.0295152 0)
(0 -0.0305047 0)
(0 -0.0314869 0)
(0 -0.032462 0)
(0 -0.0334302 0)
(-1.21613e-16 -0.0343911 0)
(0 -0.0353445 0)
(0 -0.036291 0)
(0 -0.0372305 0)
(0 -0.0381627 0)
(0 -0.0390877 0)
(-1.18218e-16 -0.0400056 0)
(0 -0.0409163 0)
(-1.17074e-16 -0.0418197 0)
(0 -0.0427159 0)
(-2.32064e-16 -0.0436048 0)
(0 -0.0444865 0)
(0 -0.0453612 0)
(2.28773e-16 -0.0462288 0)
(0 -0.0470891 0)
(0 -0.0479418 0)
(0 -0.0487869 0)
(0 -0.0496252 0)
(0 -0.0504564 0)
(0 -0.05128 0)
(0 -0.0520964 0)
(0 -0.0529057 0)
(0 -0.0537076 0)
(0 -0.0545023 0)
(2.17327e-16 -0.0552897 0)
(0 -0.0560697 0)
(0 -0.0568425 0)
(-2.14303e-16 -0.0576077 0)
(-2.13224e-16 -0.0583653 0)
(0 -0.0591156 0)
(0 -0.0598588 0)
(0 -0.0605947 0)
(0 -0.061323 0)
(2.08244e-16 -0.0620436 0)
(0 -0.0627571 0)
(0 -0.0634635 0)
(0 -0.0641625 0)
(-2.04474e-16 -0.0648536 0)
(-2.03369e-16 -0.0655371 0)
(-2.02518e-16 -0.0662134 0)
(0 -0.0668826 0)
(0 -0.067544 0)
(0 -0.0681977 0)
(0 -0.0688443 0)
(0 -0.0694835 0)
(0 -0.0701152 0)
(0 -0.0707394 0)
(0 -0.0713561 0)
(0 -0.0719652 0)
(0 -0.0725668 0)
(-1.92289e-16 -0.0731605 0)
(-1.9142e-16 -0.0737467 0)
(0 -0.0743254 0)
(0 -0.0748965 0)
(0 -0.0754604 0)
(0 -0.0760167 0)
(0 -0.0765654 0)
(-1.86161e-16 -0.077106 0)
(0 -0.077639 0)
(1.84338e-16 -0.0781648 0)
(0 -0.0786826 0)
(0 -0.0791926 0)
(0 -0.0796954 0)
(0 -0.08019 0)
(0 -0.0806769 0)
(0 -0.0811564 0)
(0 -0.0816277 0)
(-1.77482e-16 -0.0820909 0)
(-1.76741e-16 -0.0825464 0)
(0 -0.082994 0)
(0 -0.0834343 0)
(0 -0.0838666 0)
(0 -0.0842911 0)
(-1.72688e-16 -0.0847081 0)
(0 -0.0851172 0)
(0 -0.0855181 0)
(0 -0.0859111 0)
(0 -0.0862962 0)
(-1.68564e-16 -0.0866729 0)
(0 -0.0870416 0)
(0 -0.0874027 0)
(0 -0.0877559 0)
(0 -0.0881011 0)
(0 -0.0884386 0)
(1.63915e-16 -0.088768 0)
(0 -0.0890893 0)
(0 -0.0894026 0)
(0 -0.0897077 0)
(0 -0.0900047 0)
(-1.6012e-16 -0.0902932 0)
(0 -0.0905734 0)
(1.5862e-16 -0.0908458 0)
(0 -0.0911095 0)
(1.57149e-16 -0.091365 0)
(0 -0.0916126 0)
(0 -0.0918513 0)
(0 -0.0920817 0)
(-1.54216e-16 -0.0923036 0)
(0 -0.0925166 0)
(-1.52756e-16 -0.0927212 0)
(0 -0.0929178 0)
(-1.51323e-16 -0.0931064 0)
(0 -0.0932866 0)
(0 -0.0934577 0)
(0 -0.0936204 0)
(-1.48537e-16 -0.093775 0)
(-1.47824e-16 -0.0939204 0)
(-1.47182e-16 -0.0940567 0)
(-1.46419e-16 -0.0941843 0)
(0 -0.0943038 0)
(0 -0.0944144 0)
(0 -0.0945162 0)
(-1.43748e-16 -0.0946092 0)
(0 -0.0946932 0)
(0 -0.0947682 0)
(0 -0.0948342 0)
(0 -0.0948912 0)
(0 -0.0949394 0)
(0 -0.0949786 0)
(1.39086e-16 -0.0950088 0)
(0 -0.0950305 0)
(-2.75458e-16 -0.0950422 0)
(0 -0.0950448 0)
(0 -0.0950389 0)
(0 -0.0950232 0)
(-1.35201e-16 -0.0949974 0)
(0 -0.0949629 0)
(0 -0.094919 0)
(1.33339e-16 -0.0948658 0)
(-1.32712e-16 -0.0948038 0)
(0 -0.094732 0)
(-1.31476e-16 -0.09465 0)
(0 -0.0945584 0)
(0 -0.0944579 0)
(-1.29615e-16 -0.094347 0)
(-2.58045e-16 -0.0942259 0)
(0 -0.0940951 0)
(1.27806e-16 -0.0939552 0)
(-1.2723e-16 -0.0938056 0)
(0 -0.0936455 0)
(-1.26e-16 -0.0934753 0)
(0 -0.0932958 0)
(0 -0.093107 0)
(2.48488e-16 -0.0929082 0)
(0 -0.0926994 0)
(0 -0.0924804 0)
(-1.22536e-16 -0.0922512 0)
(0 -0.0920119 0)
(-1.21395e-16 -0.0917618 0)
(0 -0.0915015 0)
(-2.40464e-16 -0.0912309 0)
(1.1968e-16 -0.09095 0)
(0 -0.0906594 0)
(1.18549e-16 -0.0903583 0)
(-1.18012e-16 -0.0900461 0)
(1.1744e-16 -0.0897234 0)
(1.16913e-16 -0.0893909 0)
(0 -0.0890477 0)
(0 -0.0886938 0)
(0 -0.0883292 0)
(0 -0.087954 0)
(0 -0.0875681 0)
(0 -0.0871713 0)
(0 -0.0867638 0)
(0 -0.0863458 0)
(0 -0.0859162 0)
(0 -0.0854758 0)
(0 -0.0850254 0)
(-1.10471e-16 -0.0845634 0)
(0 -0.0840906 0)
(0 -0.0836077 0)
(0 -0.0831134 0)
(-1.0842e-16 -0.0826075 0)
(0 -0.0820914 0)
(0 -0.0815644 0)
(2.1383e-16 -0.0810264 0)
(0 -0.0804774 0)
(0 -0.0799168 0)
(0 -0.0793453 0)
(0 -0.0787634 0)
(0 -0.0781713 0)
(-2.07861e-16 -0.0775681 0)
(1.03454e-16 -0.076954 0)
(1.02983e-16 -0.0763294 0)
(-1.02484e-16 -0.0756933 0)
(3.06064e-16 -0.0750464 0)
(-1.01532e-16 -0.0743888 0)
(0 -0.0737204 0)
(0 -0.0730413 0)
(-1.00122e-16 -0.0723508 0)
(0 -0.0716496 0)
(1.98368e-16 -0.0709385 0)
(0 -0.0702168 0)
(0 -0.0694844 0)
(0 -0.068742 0)
(0 -0.0679894 0)
(-9.68591e-17 -0.0672256 0)
(0 -0.0664514 0)
(0 -0.0656678 0)
(0 -0.0648733 0)
(-9.50654e-17 -0.0640679 0)
(0 -0.0632534 0)
(0 -0.0624297 0)
(0 -0.0615961 0)
(0 -0.0607526 0)
(0 -0.0598994 0)
(-9.24204e-17 -0.0590364 0)
(0 -0.0581633 0)
(0 -0.0572801 0)
(0 -0.0563874 0)
(0 -0.0554862 0)
(0 -0.0545765 0)
(8.98709e-17 -0.0536578 0)
(-8.94438e-17 -0.0527302 0)
(-8.90208e-17 -0.0517929 0)
(8.86249e-17 -0.050847 0)
(0 -0.0498932 0)
(0 -0.0489308 0)
(0 -0.0479599 0)
(-1.73929e-16 -0.0469801 0)
(0 -0.0459914 0)
(0 -0.0449953 0)
(0 -0.0439918 0)
(0 -0.0429798 0)
(0 -0.0419597 0)
(0 -0.0409326 0)
(-1.68313e-16 -0.0398974 0)
(0 -0.0388541 0)
(0 -0.0378034 0)
(0 -0.0367461 0)
(0 -0.0356815 0)
(0 -0.0346098 0)
(0 -0.0335319 0)
(0 -0.0324464 0)
(0 -0.0313538 0)
(8.06698e-17 -0.0302551 0)
(-1.60575e-16 -0.029149 0)
(0 -0.0280361 0)
(-1.59067e-16 -0.0269166 0)
(-7.9162e-17 -0.0257898 0)
(-1.57588e-16 -0.0246566 0)
(0 -0.0235176 0)
(0 -0.0223728 0)
(0 -0.0212216 0)
(7.73193e-17 -0.020064 0)
(0 -0.0189001 0)
(0 -0.0177298 0)
(0 -0.0165532 0)
(0 -0.0153703 0)
(0 -0.0141807 0)
(0 -0.0129841 0)
(0 -0.0117811 0)
(-1.48929e-16 -0.0105717 0)
(0 -0.00935612 0)
(0 -0.00813472 0)
(0 -0.0069066 0)
(0 -0.00567209 0)
(-7.27379e-17 -0.00443095 0)
(0 -0.00318237 0)
(0 -0.00192712 0)
(-7.17217e-17 -0.000648898 0)
)
;

boundaryField
{
    INLET
    {
        type            cyclic;
    }
    OUTLET
    {
        type            cyclic;
    }
    CENTER
    {
        type            symmetryPlane;
    }
    WALL
    {
        type            extrapolatedCalculated;
        value           uniform (0 0.335018 0);
    }
    frontAndBackPlanes
    {
        type            empty;
    }
}


// ************************************************************************* //
