/*--------------------------------*- C++ -*----------------------------------*\
| =========                 |                                                 |
| \\      /  F ield         | OpenFOAM: The Open Source CFD Toolbox           |
|  \\    /   O peration     | Version:  v1806                                 |
|   \\  /    A nd           | Web:      www.OpenFOAM.com                      |
|    \\/     M anipulation  |                                                 |
\*---------------------------------------------------------------------------*/
FoamFile
{
    version     2.0;
    format      ascii;
    class       volVectorField;
    location    "10000";
    object      grad(p);
}
// * * * * * * * * * * * * * * * * * * * * * * * * * * * * * * * * * * * * * //

dimensions      [0 1 -2 0 0 0 0];


internalField   nonuniform List<vector> 
1025
(
(2.44077e-31 7.71373e-12 0)
(0 9.13421e-12 0)
(0 8.31092e-13 0)
(-2.88797e-30 -1.11084e-12 0)
(0 -8.54653e-13 0)
(0 -6.43568e-13 0)
(-9.49175e-31 -6.40717e-13 0)
(0 -6.6983e-13 0)
(0 -6.78174e-13 0)
(0 -6.74386e-13 0)
(0 -6.68567e-13 0)
(0 -6.63969e-13 0)
(0 -6.61367e-13 0)
(-2.75547e-30 -6.61231e-13 0)
(-9.14181e-31 -6.6389e-13 0)
(-9.09913e-31 -6.69507e-13 0)
(0 -6.78616e-13 0)
(0 -6.91721e-13 0)
(0 -7.09303e-13 0)
(-4.46479e-31 -7.31905e-13 0)
(0 -7.5978e-13 0)
(4.4231e-31 -7.92935e-13 0)
(8.80479e-31 -8.31538e-13 0)
(0 -8.75642e-13 0)
(4.36115e-31 -9.24722e-13 0)
(2.17031e-31 -9.78684e-13 0)
(0 -1.03761e-12 0)
(0 -1.101e-12 0)
(0 -1.16822e-12 0)
(0 -1.23901e-12 0)
(0 -1.31308e-12 0)
(0 -1.38957e-12 0)
(0 -1.46819e-12 0)
(0 -1.54878e-12 0)
(0 -1.63068e-12 0)
(0 -1.7134e-12 0)
(0 -1.79647e-12 0)
(0 -1.87931e-12 0)
(0 -1.96209e-12 0)
(1.62593e-30 -2.04476e-12 0)
(0 -2.1264e-12 0)
(0 -2.20705e-12 0)
(0 -2.28701e-12 0)
(-1.59558e-30 -2.36522e-12 0)
(3.17634e-30 -2.44191e-12 0)
(1.5805e-30 -2.51752e-12 0)
(3.14645e-30 -2.59227e-12 0)
(0 -2.66533e-12 0)
(0 -2.73582e-12 0)
(0 -2.80484e-12 0)
(0 -2.87274e-12 0)
(0 -2.93863e-12 0)
(0 -3.00245e-12 0)
(3.0452e-30 -3.06603e-12 0)
(0 -3.12761e-12 0)
(0 -3.1861e-12 0)
(0 -3.24372e-12 0)
(0 -3.30041e-12 0)
(0 -3.35505e-12 0)
(0 -3.40805e-12 0)
(0 -3.45992e-12 0)
(0 -3.50978e-12 0)
(1.16751e-29 -3.55847e-12 0)
(0 -3.60576e-12 0)
(0 -3.65169e-12 0)
(0 -3.69604e-12 0)
(0 -3.73844e-12 0)
(0 -3.77944e-12 0)
(1.13493e-29 -3.81971e-12 0)
(1.12982e-29 -3.85955e-12 0)
(1.12433e-29 -3.89833e-12 0)
(0 -3.93566e-12 0)
(0 -3.97023e-12 0)
(0 -4.0032e-12 0)
(0 -4.03636e-12 0)
(0 -4.06879e-12 0)
(0 -4.09938e-12 0)
(0 -4.1287e-12 0)
(0 -4.15737e-12 0)
(0 -4.18516e-12 0)
(0 -4.21134e-12 0)
(0 -4.23697e-12 0)
(1.06297e-29 -4.26279e-12 0)
(0 -4.28689e-12 0)
(0 -4.3094e-12 0)
(0 -4.33104e-12 0)
(0 -4.35178e-12 0)
(2.07643e-29 -4.37244e-12 0)
(0 -4.39206e-12 0)
(0 -4.4101e-12 0)
(0 -4.42749e-12 0)
(2.03776e-29 -4.44539e-12 0)
(0 -4.46234e-12 0)
(0 -4.47721e-12 0)
(0 -4.49103e-12 0)
(0 -4.50495e-12 0)
(1.99058e-29 -4.51917e-12 0)
(0 -4.53238e-12 0)
(0 -4.54516e-12 0)
(1.96267e-29 -4.55783e-12 0)
(-1.95343e-29 -4.568e-12 0)
(0 -4.57679e-12 0)
(0 -4.58658e-12 0)
(0 -4.59545e-12 0)
(0 -4.60285e-12 0)
(0 -4.61166e-12 0)
(3.79838e-29 -4.62117e-12 0)
(-3.77989e-29 -4.6273e-12 0)
(0 -4.63226e-12 0)
(0 -4.63808e-12 0)
(0 -4.6438e-12 0)
(0 -4.64911e-12 0)
(0 -4.65438e-12 0)
(0 -4.65817e-12 0)
(0 -4.66015e-12 0)
(0 -4.66341e-12 0)
(-3.62398e-29 -4.66584e-12 0)
(0 -4.66777e-12 0)
(3.58994e-29 -4.67071e-12 0)
(3.57342e-29 -4.67312e-12 0)
(0 -4.67326e-12 0)
(3.53979e-29 -4.67344e-12 0)
(3.52321e-29 -4.67541e-12 0)
(0 -4.67515e-12 0)
(0 -4.67271e-12 0)
(3.4739e-29 -4.67187e-12 0)
(0 -4.67285e-12 0)
(0 -4.67266e-12 0)
(0 -4.66927e-12 0)
(3.40945e-29 -4.66644e-12 0)
(0 -4.6645e-12 0)
(3.3774e-29 -4.66169e-12 0)
(0 -4.65821e-12 0)
(0 -4.65511e-12 0)
(0 -4.65195e-12 0)
(0 -4.64765e-12 0)
(0 -4.64323e-12 0)
(3.28343e-29 -4.6395e-12 0)
(0 -4.63619e-12 0)
(-3.25282e-29 -4.63027e-12 0)
(0 -4.62452e-12 0)
(0 -4.6195e-12 0)
(0 -4.61163e-12 0)
(3.19243e-29 -4.60621e-12 0)
(3.17726e-29 -4.60432e-12 0)
(0 -4.59808e-12 0)
(3.14777e-29 -4.58979e-12 0)
(3.13302e-29 -4.58377e-12 0)
(0 -4.57723e-12 0)
(6.20787e-29 -4.57085e-12 0)
(0 -4.56426e-12 0)
(0 -4.5557e-12 0)
(0 -4.54834e-12 0)
(0 -4.54126e-12 0)
(0 -4.53344e-12 0)
(0 -4.5259e-12 0)
(0 -4.51788e-12 0)
(0 -4.51036e-12 0)
(-1.19002e-28 -4.49898e-12 0)
(0 -4.48903e-12 0)
(0 -4.48358e-12 0)
(-5.86673e-29 -4.47408e-12 0)
(0 -4.46451e-12 0)
(0 -4.45647e-12 0)
(0 -4.44713e-12 0)
(0 -4.43729e-12 0)
(5.73125e-29 -4.42891e-12 0)
(0 -4.42012e-12 0)
(0 -4.40998e-12 0)
(5.65386e-29 -4.40132e-12 0)
(5.6248e-29 -4.39053e-12 0)
(0 -4.37767e-12 0)
(0 -4.36826e-12 0)
(0 -4.36097e-12 0)
(0 -4.35096e-12 0)
(0 -4.34072e-12 0)
(0 -4.33333e-12 0)
(-5.44048e-29 -4.32005e-12 0)
(0 -4.30711e-12 0)
(-1.07835e-28 -4.29868e-12 0)
(0 -4.29035e-12 0)
(0 -4.27957e-12 0)
(0 -4.26551e-12 0)
(0 -4.2563e-12 0)
(0 -4.24492e-12 0)
(0 -4.23083e-12 0)
(0 -4.21997e-12 0)
(5.19399e-29 -4.21186e-12 0)
(0 -4.20234e-12 0)
(0 -4.18775e-12 0)
(0 -4.17469e-12 0)
(0 -4.16438e-12 0)
(1.01365e-28 -4.15326e-12 0)
(0 -4.14245e-12 0)
(1.00413e-28 -4.13313e-12 0)
(-1.001e-28 -4.12036e-12 0)
(0 -4.10548e-12 0)
(9.91725e-29 -4.09541e-12 0)
(0 -4.08551e-12 0)
(-9.81616e-29 -4.07284e-12 0)
(0 -4.06162e-12 0)
(0 -4.05055e-12 0)
(0 -4.03873e-12 0)
(-9.62965e-29 -4.02594e-12 0)
(0 -4.01439e-12 0)
(0 -4.00479e-12 0)
(0 -3.99419e-12 0)
(0 -3.98135e-12 0)
(0 -3.96831e-12 0)
(-9.36736e-29 -3.95663e-12 0)
(9.32202e-29 -3.94578e-12 0)
(9.27712e-29 -3.93677e-12 0)
(0 -3.92402e-12 0)
(0 -3.91056e-12 0)
(-9.14497e-29 -3.90034e-12 0)
(0 -3.89028e-12 0)
(0 -3.87827e-12 0)
(0 -3.8648e-12 0)
(0 -3.85201e-12 0)
(0 -3.83766e-12 0)
(0 -3.82605e-12 0)
(0 -3.81736e-12 0)
(8.81029e-29 -3.80599e-12 0)
(0 -3.7931e-12 0)
(0 -3.78081e-12 0)
(-1.73664e-28 -3.76765e-12 0)
(0 -3.75491e-12 0)
(-1.72112e-28 -3.74027e-12 0)
(8.5673e-29 -3.72819e-12 0)
(8.52181e-29 -3.72075e-12 0)
(0 -3.70924e-12 0)
(0 -3.69344e-12 0)
(8.40284e-29 -3.67941e-12 0)
(0 -3.66678e-12 0)
(8.33015e-29 -3.65409e-12 0)
(1.65885e-28 -3.64851e-12 0)
(0 -3.63894e-12 0)
(0 -3.62144e-12 0)
(0 -3.60571e-12 0)
(0 -3.59347e-12 0)
(0 -3.58491e-12 0)
(0 -3.57281e-12 0)
(0 -3.56092e-12 0)
(0 -3.55304e-12 0)
(-7.95182e-29 -3.53509e-12 0)
(0 -3.51679e-12 0)
(0 -3.50844e-12 0)
(0 -3.49873e-12 0)
(0 -3.48726e-12 0)
(0 -3.47163e-12 0)
(0 -3.45868e-12 0)
(0 -3.45129e-12 0)
(0 -3.44049e-12 0)
(-1.52368e-28 -3.42261e-12 0)
(0 -3.40418e-12 0)
(1.50935e-28 -3.39462e-12 0)
(1.50229e-28 -3.38723e-12 0)
(0 -3.3753e-12 0)
(1.48835e-28 -3.3597e-12 0)
(1.48148e-28 -3.34813e-12 0)
(1.47468e-28 -3.33998e-12 0)
(0 -3.32595e-12 0)
(0 -3.31123e-12 0)
(1.45353e-28 -3.30175e-12 0)
(-1.44698e-28 -3.29242e-12 0)
(0 -3.27929e-12 0)
(0 -3.2647e-12 0)
(0 -3.25176e-12 0)
(0 -3.2397e-12 0)
(0 -3.23042e-12 0)
(0 -3.22116e-12 0)
(0 -3.20799e-12 0)
(0 -3.19445e-12 0)
(1.38756e-28 -3.18442e-12 0)
(0 -3.17559e-12 0)
(0 -3.16331e-12 0)
(0 -3.14916e-12 0)
(0 -3.13791e-12 0)
(0 -3.12546e-12 0)
(0 -3.11385e-12 0)
(2.68422e-28 -3.10835e-12 0)
(1.3356e-28 -3.09948e-12 0)
(0 -3.08482e-12 0)
(0 -3.07314e-12 0)
(0 -3.05951e-12 0)
(1.31105e-28 -3.04644e-12 0)
(1.30483e-28 -3.04202e-12 0)
(-1.29867e-28 -3.03114e-12 0)
(0 -3.01383e-12 0)
(0 -3.00325e-12 0)
(1.28054e-28 -2.9974e-12 0)
(0 -2.98829e-12 0)
(0 -2.97341e-12 0)
(-1.26208e-28 -2.95806e-12 0)
(0 -2.94735e-12 0)
(0 -2.93748e-12 0)
(0 -2.92571e-12 0)
(1.23934e-28 -2.91716e-12 0)
(0 -2.90754e-12 0)
(0 -2.89358e-12 0)
(0 -2.88419e-12 0)
(0 -2.87552e-12 0)
(0 -2.86312e-12 0)
(0 -2.85151e-12 0)
(0 -2.84067e-12 0)
(0 -2.82997e-12 0)
(0 -2.81626e-12 0)
(0 -2.80632e-12 0)
(0 -2.80201e-12 0)
(0 -2.79168e-12 0)
(0 -2.77662e-12 0)
(0 -2.76652e-12 0)
(0 -2.75829e-12 0)
(0 -2.74661e-12 0)
(0 -2.73516e-12 0)
(0 -2.72485e-12 0)
(0 -2.71351e-12 0)
(0 -2.70171e-12 0)
(1.12299e-28 -2.69524e-12 0)
(-1.11713e-28 -2.68492e-12 0)
(0 -2.66534e-12 0)
(0 -2.65463e-12 0)
(0 -2.65043e-12 0)
(0 -2.64162e-12 0)
(0 -2.63181e-12 0)
(0 -2.6176e-12 0)
(0 -2.60626e-12 0)
(0 -2.5984e-12 0)
(0 -2.58572e-12 0)
(0 -2.57755e-12 0)
(0 -2.56998e-12 0)
(0 -2.55719e-12 0)
(0 -2.5483e-12 0)
(0 -2.53943e-12 0)
(0 -2.52691e-12 0)
(2.07312e-28 -2.5205e-12 0)
(0 -2.51029e-12 0)
(0 -2.49532e-12 0)
(0 -2.48389e-12 0)
(2.03479e-28 -2.47839e-12 0)
(0 -2.47302e-12 0)
(0 -2.45977e-12 0)
(0 -2.4466e-12 0)
(0 -2.43888e-12 0)
(0 -2.43226e-12 0)
(0 -2.42003e-12 0)
(1.96825e-28 -2.40898e-12 0)
(0 -2.39951e-12 0)
(1.95031e-28 -2.39593e-12 0)
(-1.94146e-28 -2.3878e-12 0)
(0 -2.37563e-12 0)
(-1.92305e-28 -2.36307e-12 0)
(0 -2.34452e-12 0)
(0 -2.33385e-12 0)
(1.89653e-28 -2.32926e-12 0)
(0 -2.32031e-12 0)
(0 -2.30646e-12 0)
(3.73967e-28 -2.29917e-12 0)
(0 -2.29202e-12 0)
(0 -2.28249e-12 0)
(0 -2.27368e-12 0)
(-1.83509e-28 -2.2604e-12 0)
(0 -2.24924e-12 0)
(0 -2.24172e-12 0)
(0 -2.23327e-12 0)
(0 -2.22204e-12 0)
(0 -2.20704e-12 0)
(1.78409e-28 -2.19947e-12 0)
(3.5501e-28 -2.20348e-12 0)
(-1.76772e-28 -2.1936e-12 0)
(0 -2.17112e-12 0)
(0 -2.1541e-12 0)
(5.2264e-28 -2.15414e-12 0)
(1.73429e-28 -2.16025e-12 0)
(-1.72652e-28 -2.14494e-12 0)
(0 -2.12847e-12 0)
(-1.71042e-28 -2.11764e-12 0)
(0 -2.10932e-12 0)
(0 -2.10388e-12 0)
(0 -2.09335e-12 0)
(3.35674e-28 -2.08532e-12 0)
(0 -2.07701e-12 0)
(0 -2.06522e-12 0)
(0 -2.05389e-12 0)
(3.295e-28 -2.04711e-12 0)
(0 -2.0389e-12 0)
(0 -2.0316e-12 0)
(0 -2.02388e-12 0)
(0 -2.01016e-12 0)
(0 -2.00351e-12 0)
(1.6016e-28 -1.99663e-12 0)
(0 -1.99118e-12 0)
(0 -1.98408e-12 0)
(0 -1.96676e-12 0)
(3.14309e-28 -1.9556e-12 0)
(0 -1.95139e-12 0)
(0 -1.94979e-12 0)
(0 -1.94063e-12 0)
(0 -1.92618e-12 0)
(0 -1.92663e-12 0)
(-3.05582e-28 -1.91079e-12 0)
(0 -1.89336e-12 0)
(0 -1.89569e-12 0)
(-3.0128e-28 -1.88405e-12 0)
(0 -1.87005e-12 0)
(0 -1.86192e-12 0)
(2.97097e-28 -1.8587e-12 0)
(0 -1.85446e-12 0)
(0 -1.84438e-12 0)
(0 -1.83304e-12 0)
(0 -1.81866e-12 0)
(0 -1.8105e-12 0)
(2.88853e-28 -1.80948e-12 0)
(2.87452e-28 -1.80589e-12 0)
(0 -1.79534e-12 0)
(0 -1.78204e-12 0)
(0 -1.77121e-12 0)
(0 -1.76023e-12 0)
(0 -1.75369e-12 0)
(0 -1.75027e-12 0)
(0 -1.73932e-12 0)
(0 -1.73145e-12 0)
(0 -1.72503e-12 0)
(2.74251e-28 -1.72036e-12 0)
(-2.73085e-28 -1.7083e-12 0)
(0 -1.69293e-12 0)
(2.70496e-28 -1.69563e-12 0)
(0 -1.69078e-12 0)
(0 -1.67258e-12 0)
(0 -1.6608e-12 0)
(0 -1.65935e-12 0)
(0 -1.6517e-12 0)
(0 -1.6424e-12 0)
(0 -1.63468e-12 0)
(0 -1.62153e-12 0)
(2.59297e-28 -1.61705e-12 0)
(0 -1.61246e-12 0)
(0 -1.60643e-12 0)
(0 -1.60032e-12 0)
(0 -1.58865e-12 0)
(0 -1.5799e-12 0)
(0 -1.57815e-12 0)
(0 -1.56543e-12 0)
(0 -1.55243e-12 0)
(0 -1.55068e-12 0)
(0 -1.55045e-12 0)
(0 -1.54052e-12 0)
(0 -1.52385e-12 0)
(0 -1.51539e-12 0)
(0 -1.50552e-12 0)
(2.41647e-28 -1.50499e-12 0)
(0 -1.5019e-12 0)
(0 -1.48437e-12 0)
(0 -1.46554e-12 0)
(4.74221e-28 -1.47805e-12 0)
(0 -1.49462e-12 0)
(-2.34941e-28 -1.46576e-12 0)
(0 -1.43802e-12 0)
(2.3267e-28 -1.43864e-12 0)
(2.31621e-28 -1.44834e-12 0)
(0 -1.44162e-12 0)
(0 -1.41727e-12 0)
(2.28394e-28 -1.42156e-12 0)
(0 -1.43326e-12 0)
(0 -1.41908e-12 0)
(0 -1.40383e-12 0)
(0 -1.39226e-12 0)
(0 -1.38183e-12 0)
(2.22009e-28 -1.38715e-12 0)
(0 -1.38056e-12 0)
(2.19981e-28 -1.3715e-12 0)
(0 -1.37074e-12 0)
(2.17865e-28 -1.36515e-12 0)
(0 -1.361e-12 0)
(2.15851e-28 -1.3557e-12 0)
(-2.14888e-28 -1.34447e-12 0)
(2.13814e-28 -1.33314e-12 0)
(0 -1.32895e-12 0)
(0 -1.32132e-12 0)
(2.10887e-28 -1.32527e-12 0)
(-4.19707e-28 -1.3108e-12 0)
(0 -1.29178e-12 0)
(0 -1.29569e-12 0)
(-2.06922e-28 -1.28917e-12 0)
(0 -1.27819e-12 0)
(0 -1.27319e-12 0)
(0 -1.26367e-12 0)
(0 -1.2584e-12 0)
(2.02144e-28 -1.25759e-12 0)
(0 -1.24806e-12 0)
(0 -1.23871e-12 0)
(3.9864e-28 -1.23586e-12 0)
(0 -1.23928e-12 0)
(-3.9486e-28 -1.23099e-12 0)
(0 -1.21631e-12 0)
(0 -1.21128e-12 0)
(0 -1.20313e-12 0)
(0 -1.2045e-12 0)
(0 -1.21208e-12 0)
(0 -1.21008e-12 0)
(-3.82129e-28 -1.18125e-12 0)
(3.80337e-28 -1.16281e-12 0)
(0 -1.17742e-12 0)
(0 -1.17769e-12 0)
(0 -1.16359e-12 0)
(0 -1.15962e-12 0)
(0 -1.15977e-12 0)
(0 -1.15399e-12 0)
(-3.68071e-28 -1.1422e-12 0)
(0 -1.13426e-12 0)
(-3.64587e-28 -1.12653e-12 0)
(0 -1.10301e-12 0)
(0 -1.09537e-12 0)
(0 -1.10355e-12 0)
(0 -1.0998e-12 0)
(0 -1.09213e-12 0)
(0 -1.08273e-12 0)
(0 -1.07531e-12 0)
(0 -1.07726e-12 0)
(-3.49454e-28 -1.06417e-12 0)
(0 -1.03998e-12 0)
(6.92469e-28 -1.04752e-12 0)
(0 -1.05503e-12 0)
(0 -1.03305e-12 0)
(6.82803e-28 -1.03317e-12 0)
(0 -1.03508e-12 0)
(0 -1.02241e-12 0)
(0 -1.02255e-12 0)
(3.35017e-28 -1.02611e-12 0)
(0 -1.01717e-12 0)
(0 -1.003e-12 0)
(0 -9.99536e-13 0)
(0 -9.94267e-13 0)
(0 -9.87206e-13 0)
(0 -9.94131e-13 0)
(-3.24231e-28 -9.9247e-13 0)
(0 -9.7167e-13 0)
(0 -9.54437e-13 0)
(3.19656e-28 -9.62969e-13 0)
(3.18138e-28 -9.83382e-13 0)
(0 -9.81571e-13 0)
(-3.15145e-28 -9.54548e-13 0)
(0 -9.36037e-13 0)
(0 -9.40959e-13 0)
(0 -9.3431e-13 0)
(0 -9.29363e-13 0)
(0 -9.29293e-13 0)
(0 -9.22626e-13 0)
(0 -9.22526e-13 0)
(0 -9.27179e-13 0)
(-3.02107e-28 -9.04847e-13 0)
(0 -8.77767e-13 0)
(2.99174e-28 -8.88552e-13 0)
(2.98016e-28 -9.02381e-13 0)
(0 -8.9583e-13 0)
(0 -8.8374e-13 0)
(2.94035e-28 -8.77867e-13 0)
(2.92361e-28 -8.76977e-13 0)
(0 -8.82203e-13 0)
(0 -8.82573e-13 0)
(0 -8.66287e-13 0)
(2.86917e-28 -8.56442e-13 0)
(0 -8.48186e-13 0)
(0 -8.34618e-13 0)
(5.65411e-28 -8.4209e-13 0)
(2.81672e-28 -8.6622e-13 0)
(0 -8.68976e-13 0)
(-2.78616e-28 -8.40016e-13 0)
(0 -8.22482e-13 0)
(0 -8.24489e-13 0)
(0 -8.18236e-13 0)
(0 -8.04285e-13 0)
(2.72216e-28 -8.13621e-13 0)
(0 -8.23609e-13 0)
(0 -8.06927e-13 0)
(0 -7.87526e-13 0)
(2.6749e-28 -7.88478e-13 0)
(2.66104e-28 -7.89027e-13 0)
(2.64733e-28 -7.88597e-13 0)
(0 -7.81985e-13 0)
(0 -7.69421e-13 0)
(2.61143e-28 -7.78099e-13 0)
(0 -7.71159e-13 0)
(0 -7.48739e-13 0)
(2.57649e-28 -7.57813e-13 0)
(0 -7.7428e-13 0)
(0 -7.69462e-13 0)
(-2.53829e-28 -7.31067e-13 0)
(2.52581e-28 -7.03758e-13 0)
(5.03511e-28 -7.20993e-13 0)
(5.01055e-28 -7.39716e-13 0)
(0 -7.47641e-13 0)
(-4.96214e-28 -7.18375e-13 0)
(0 -6.99416e-13 0)
(0 -7.1037e-13 0)
(0 -6.93825e-13 0)
(4.86807e-28 -6.70015e-13 0)
(4.84511e-28 -6.78838e-13 0)
(4.82992e-28 -7.02235e-13 0)
(0 -7.09993e-13 0)
(4.7775e-28 -7.1269e-13 0)
(0 -7.03837e-13 0)
(-4.73347e-28 -6.80753e-13 0)
(0 -6.81578e-13 0)
(-9.38048e-28 -6.86826e-13 0)
(0 -6.68531e-13 0)
(0 -6.57757e-13 0)
(0 -6.58825e-13 0)
(0 -6.52894e-13 0)
(0 -6.60373e-13 0)
(0 -6.65587e-13 0)
(0 -6.41554e-13 0)
(0 -6.33171e-13 0)
(0 -6.49616e-13 0)
(0 -6.32769e-13 0)
(8.90603e-28 -6.41787e-13 0)
(-4.42743e-28 -6.46672e-13 0)
(0 -6.03776e-13 0)
(4.38958e-28 -6.0454e-13 0)
(4.3709e-28 -6.35318e-13 0)
(-4.34625e-28 -6.38208e-13 0)
(0 -6.2414e-13 0)
(-4.30977e-28 -6.03302e-13 0)
(0 -5.80187e-13 0)
(0 -5.70556e-13 0)
(4.25033e-28 -5.92275e-13 0)
(0 -6.07483e-13 0)
(0 -5.95814e-13 0)
(0 -5.88391e-13 0)
(0 -5.76354e-13 0)
(8.29472e-28 -5.8668e-13 0)
(-4.13068e-28 -5.87545e-13 0)
(-4.11414e-28 -5.56327e-13 0)
(8.18456e-28 -5.58586e-13 0)
(0 -5.80704e-13 0)
(-4.05459e-28 -5.59648e-13 0)
(0 -5.32898e-13 0)
(0 -5.2588e-13 0)
(3.99674e-28 -5.43679e-13 0)
(0 -5.57594e-13 0)
(0 -5.42939e-13 0)
(0 -5.34163e-13 0)
(0 -5.32988e-13 0)
(0 -5.27814e-13 0)
(0 -5.16857e-13 0)
(0 -5.19136e-13 0)
(0 -5.14147e-13 0)
(0 -4.98019e-13 0)
(3.81372e-28 -4.95222e-13 0)
(0 -5.03274e-13 0)
(0 -5.01878e-13 0)
(3.7625e-28 -5.02091e-13 0)
(-7.47934e-28 -5.02454e-13 0)
(-3.7261e-28 -4.74867e-13 0)
(0 -4.5627e-13 0)
(0 -4.53393e-13 0)
(3.67281e-28 -4.65981e-13 0)
(0 -4.81984e-13 0)
(0 -4.70702e-13 0)
(0 -4.49312e-13 0)
(0 -4.46264e-13 0)
(0 -4.5834e-13 0)
(0 -4.48899e-13 0)
(7.10839e-28 -4.34541e-13 0)
(3.53787e-28 -4.46644e-13 0)
(0 -4.58637e-13 0)
(0 -4.45967e-13 0)
(0 -4.33369e-13 0)
(3.47406e-28 -4.40321e-13 0)
(0 -4.32799e-13 0)
(3.43916e-28 -4.20505e-13 0)
(3.42388e-28 -4.3681e-13 0)
(0 -4.32577e-13 0)
(0 -3.9554e-13 0)
(6.75025e-28 -4.06745e-13 0)
(6.7208e-28 -4.37949e-13 0)
(0 -4.22939e-13 0)
(0 -4.05154e-13 0)
(0 -3.93831e-13 0)
(6.59848e-28 -3.88364e-13 0)
(6.56334e-28 -4.00464e-13 0)
(0 -4.0067e-13 0)
(0 -3.89412e-13 0)
(0 -3.87042e-13 0)
(0 -3.87465e-13 0)
(-3.20654e-28 -3.73518e-13 0)
(3.18995e-28 -3.71055e-13 0)
(0 -3.77226e-13 0)
(0 -3.74653e-13 0)
(0 -3.69359e-13 0)
(0 -3.69762e-13 0)
(0 -3.73022e-13 0)
(0 -3.62461e-13 0)
(0 -3.5186e-13 0)
(6.14454e-28 -3.60179e-13 0)
(0 -3.65944e-13 0)
(0 -3.52988e-13 0)
(6.05996e-28 -3.55952e-13 0)
(0 -3.56219e-13 0)
(6.00095e-28 -3.48647e-13 0)
(0 -3.56925e-13 0)
(0 -3.54556e-13 0)
(0 -3.39175e-13 0)
(5.89195e-28 -3.42054e-13 0)
(0 -3.5007e-13 0)
(0 -3.52766e-13 0)
(0 -3.52942e-13 0)
(0 -3.43149e-13 0)
(5.75441e-28 -3.48238e-13 0)
(-5.72767e-28 -3.46033e-13 0)
(5.70118e-28 -3.38834e-13 0)
(0 -3.46337e-13 0)
(5.64892e-28 -3.48892e-13 0)
(0 -3.39365e-13 0)
(5.59254e-28 -3.32131e-13 0)
(5.56728e-28 -3.29901e-13 0)
(0 -3.20764e-13 0)
(5.51744e-28 -3.37267e-13 0)
(0 -3.46661e-13 0)
(0 -3.30432e-13 0)
(0 -3.2127e-13 0)
(0 -3.12365e-13 0)
(0 -3.10372e-13 0)
(0 -3.21612e-13 0)
(5.33591e-28 -3.32622e-13 0)
(-5.31291e-28 -3.23877e-13 0)
(0 -3.12964e-13 0)
(0 -3.02087e-13 0)
(5.23617e-28 -2.99864e-13 0)
(0 -3.0869e-13 0)
(0 -3.04592e-13 0)
(0 -2.96125e-13 0)
(0 -2.83539e-13 0)
(0 -2.8566e-13 0)
(5.08916e-28 -2.98198e-13 0)
(0 -3.00345e-13 0)
(0 -3.00319e-13 0)
(0 -2.96243e-13 0)
(0 -2.88163e-13 0)
(0 -2.82195e-13 0)
(0 -2.64409e-13 0)
(4.92644e-28 -2.56535e-13 0)
(0 -2.68437e-13 0)
(4.87963e-28 -2.78228e-13 0)
(0 -2.64845e-13 0)
(0 -2.51486e-13 0)
(0 -2.61173e-13 0)
(0 -2.59317e-13 0)
(0 -2.46176e-13 0)
(0 -2.38926e-13 0)
(0 -2.28049e-13 0)
(4.70097e-28 -2.44624e-13 0)
(0 -2.5764e-13 0)
(4.65833e-28 -2.37712e-13 0)
(4.6373e-28 -2.3421e-13 0)
(0 -2.39731e-13 0)
(0 -2.36362e-13 0)
(4.57194e-28 -2.39874e-13 0)
(0 -2.38148e-13 0)
(0 -2.26024e-13 0)
(0 -2.26257e-13 0)
(0 -2.28132e-13 0)
(0 -2.26451e-13 0)
(-4.44339e-28 -2.09599e-13 0)
(8.84849e-28 -2.01321e-13 0)
(4.40213e-28 -2.16551e-13 0)
(0 -2.1839e-13 0)
(0 -2.03661e-13 0)
(4.34012e-28 -2.05385e-13 0)
(0 -2.10477e-13 0)
(0 -2.05793e-13 0)
(0 -2.01132e-13 0)
(0 -1.96459e-13 0)
(0 -1.8878e-13 0)
(4.22122e-28 -1.99838e-13 0)
(0 -2.17041e-13 0)
(0 -2.1851e-13 0)
(-1.24841e-27 -1.80408e-13 0)
(0 -1.51653e-13 0)
(0 -1.77693e-13 0)
(0 -1.88393e-13 0)
(0 -1.81048e-13 0)
(0 -1.73845e-13 0)
(0 -1.66709e-13 0)
(0 -1.71244e-13 0)
(0 -1.78701e-13 0)
(0 -1.83098e-13 0)
(0 -1.93123e-13 0)
(-7.90632e-28 -1.60852e-13 0)
(7.86596e-28 -1.34283e-13 0)
(0 -1.44465e-13 0)
(3.89815e-28 -1.48914e-13 0)
(3.87852e-28 -1.5599e-13 0)
(0 -1.65642e-13 0)
(0 -1.64516e-13 0)
(-7.65112e-28 -1.36612e-13 0)
(7.61331e-28 -1.38088e-13 0)
(0 -1.50343e-13 0)
(0 -1.38751e-13 0)
(0 -1.32518e-13 0)
(0 -1.1866e-13 0)
(7.43872e-28 -1.20245e-13 0)
(3.69927e-28 -1.42198e-13 0)
(7.36757e-28 -1.5378e-13 0)
(0 -1.42696e-13 0)
(0 -1.21757e-13 0)
(3.63383e-28 -1.28178e-13 0)
(0 -1.4436e-13 0)
(0 -1.38422e-13 0)
(0 -1.27726e-13 0)
(0 -1.21988e-13 0)
(3.54806e-28 -1.21038e-13 0)
(0 -1.24828e-13 0)
(0 -1.16933e-13 0)
(6.99543e-28 -1.0442e-13 0)
(6.96381e-28 -1.19642e-13 0)
(0 -1.3251e-13 0)
(0 -1.17927e-13 0)
(0 -1.08011e-13 0)
(0 -1.07189e-13 0)
(0 -1.06391e-13 0)
(0 -1.14341e-13 0)
(0 -1.20018e-13 0)
(0 -1.01829e-13 0)
(0 -1.00971e-13 0)
(0 -1.1518e-13 0)
(0 -1.07942e-13 0)
(0 -1.00765e-13 0)
(0 -1.14524e-13 0)
(0 -1.15841e-13 0)
(0 -1.00537e-13 0)
(6.45676e-28 -1.05803e-13 0)
(0 -1.19147e-13 0)
(6.39977e-28 -1.30251e-13 0)
(0 -1.25309e-13 0)
(0 -1.06578e-13 0)
(0 -9.79029e-14 0)
(6.28234e-28 -1.24253e-13 0)
(0 -1.31155e-13 0)
(0 -1.07098e-13 0)
(0 -9.68007e-14 0)
(6.16298e-28 -1.01614e-13 0)
(0 -1.17626e-13 0)
(0 -1.24148e-13 0)
(0 -1.12221e-13 0)
(0 -1.03954e-13 0)
(6.01853e-28 -1.17588e-13 0)
(0 -1.25688e-13 0)
(0 -1.12295e-13 0)
(0 -1.02525e-13 0)
(0 -1.06964e-13 0)
(0 -1.02634e-13 0)
(0 -9.1472e-14 0)
(0 -1.09477e-13 0)
(0 -1.29099e-13 0)
(0 -1.07908e-13 0)
(5.74369e-28 -1.08588e-13 0)
(-5.71705e-28 -1.0127e-13 0)
(0 -7.73323e-14 0)
(0 -8.48541e-14 0)
(0 -7.45403e-14 0)
(5.61036e-28 -7.06174e-14 0)
(0 -9.39635e-14 0)
(1.11145e-27 -1.13759e-13 0)
(0 -1.05111e-13 0)
(0 -9.01882e-14 0)
(0 -8.64192e-14 0)
(0 -8.26342e-14 0)
(0 -7.59526e-14 0)
(0 -7.22666e-14 0)
(5.37781e-28 -7.47085e-14 0)
(5.35445e-28 -8.88423e-14 0)
(0 -1.02899e-13 0)
(0 -8.75162e-14 0)
(0 -7.8072e-14 0)
(0 -7.46196e-14 0)
(5.22951e-28 -7.11504e-14 0)
(0 -6.49676e-14 0)
(0 -6.15673e-14 0)
(0 -6.94086e-14 0)
(0 -7.43663e-14 0)
(0 -7.10669e-14 0)
(5.08287e-28 -7.58388e-14 0)
(-5.05991e-28 -6.19267e-14 0)
(0 -2.93617e-14 0)
(1.50316e-27 -5.8025e-14 0)
(0 -8.39882e-14 0)
(0 -5.47208e-14 0)
(4.94224e-28 -3.09849e-14 0)
(4.91858e-28 -5.87157e-14 0)
(0 -8.12604e-14 0)
(0 -6.79946e-14 0)
(-4.85083e-28 -5.25009e-14 0)
(4.82803e-28 -5.19587e-14 0)
(0 -5.89681e-14 0)
(0 -4.87488e-14 0)
(0 -4.59075e-14 0)
(9.47421e-28 -3.36109e-14 0)
(9.43072e-28 -3.55842e-14 0)
(9.38763e-28 -7.53404e-14 0)
(0 -8.88826e-14 0)
(-4.64955e-28 -5.11295e-14 0)
(0 -2.75831e-14 0)
(0 -3.1935e-14 0)
(9.16768e-28 -5.42005e-14 0)
(0 -7.8525e-14 0)
(-4.54162e-28 -6.68174e-14 0)
(-9.03994e-28 -3.09883e-14 0)
(0 -1.96548e-14 0)
(0 -3.47168e-14 0)
(0 -4.51875e-14 0)
(0 -4.48695e-14 0)
(4.41632e-28 -4.02313e-14 0)
(0 -3.99159e-14 0)
(4.37401e-28 -4.99437e-14 0)
(-4.35392e-28 -5.37568e-14 0)
(0 -4.91686e-14 0)
(-8.62558e-28 -3.46269e-14 0)
(4.29326e-28 -4.22205e-14 0)
(0 -6.39891e-14 0)
(-4.25326e-28 -3.97364e-14 0)
(0 -2.94528e-14 0)
(0 -4.48224e-14 0)
(0 -5.02811e-14 0)
(0 -4.79658e-14 0)
(0 -4.18708e-14 0)
(0 -4.71271e-14 0)
(0 -4.86863e-14 0)
(0 -3.52901e-14 0)
(0 -4.04552e-14 0)
(0 -4.02164e-14 0)
(8.07729e-28 -3.25793e-14 0)
(8.03779e-28 -5.55845e-14 0)
(0 -6.41637e-14 0)
(0 -4.24457e-14 0)
(0 -3.50287e-14 0)
(0 -4.68847e-14 0)
(0 -5.34433e-14 0)
(0 -5.12912e-14 0)
(-3.88954e-28 -3.73599e-14 0)
(0 -2.52222e-14 0)
(7.70854e-28 -3.83263e-14 0)
(0 -4.14025e-14 0)
(0 -3.44567e-14 0)
(0 -3.90511e-14 0)
(0 -5.32258e-14 0)
(-3.76365e-28 -4.81017e-14 0)
(0 -2.54395e-14 0)
(7.45672e-28 -4.55813e-14 0)
(-3.71152e-28 -4.07592e-14 0)
(7.38744e-28 -2.31969e-14 0)
(0 -3.3841e-14 0)
(7.31728e-28 -3.5058e-14 0)
(0 -4.83745e-14 0)
(0 -5.25444e-14 0)
(0 -3.42928e-14 0)
(0 -2.36112e-14 0)
(0 -3.07337e-14 0)
(0 -3.34182e-14 0)
(-7.08388e-28 -1.87881e-14 0)
(0 -1.85289e-14 0)
(0 -2.41323e-14 0)
(6.98354e-28 -1.54787e-14 0)
(0 -1.95117e-14 0)
(0 -4.00796e-14 0)
(-6.88601e-28 -4.12501e-14 0)
(0 -1.63899e-14 0)
(0 -1.07859e-14 0)
(0 -1.60836e-14 0)
(0 -1.33072e-14 0)
(6.72447e-28 -1.44933e-14 0)
(0 -1.83202e-14 0)
(6.66268e-28 -2.07579e-14 0)
(0 -1.67632e-14 0)
(6.60024e-28 -2.29381e-14 0)
(0 -3.54772e-14 0)
(-6.53897e-28 -1.26596e-14 0)
(6.50789e-28 -2.44317e-15 0)
(6.47712e-28 -2.71666e-14 0)
(0 -2.70488e-14 0)
(0 -1.21829e-14 0)
(0 -4.84892e-15 0)
(0 9.54563e-15 0)
(1.2655e-27 2.44458e-15 0)
(0 -1.88405e-14 0)
(0 -1.4069e-14 0)
(0 4.60352e-15 0)
(0 4.64107e-15 0)
(6.17997e-28 -4.56491e-15 0)
(0 9.00292e-15 0)
(6.12318e-28 4.56539e-15 0)
(0 -1.3367e-14 0)
(0 -1.32589e-14 0)
(0 -6.60239e-15 0)
(0 -4.33028e-15 0)
(0 -4.33029e-15 0)
(0 4.26087e-15 0)
(0 -4.18925e-15 0)
(0 -1.47356e-14 0)
(-5.8695e-28 6.18333e-15 0)
(5.84168e-28 1.04082e-14 0)
(0 8.15776e-15 0)
(1.15737e-27 1.4272e-14 0)
(5.75979e-28 6.06343e-15 0)
(5.733e-28 -9.949e-15 0)
(0 -1.39352e-14 0)
(0 -1.97616e-15 0)
(0 -1.94277e-15 0)
(-5.62572e-28 5.76287e-15 0)
(0 1.53459e-14 0)
(5.57357e-28 3.85325e-15 0)
(0 -3.78695e-15 0)
(0 5.58347e-15 0)
(0 5.58346e-15 0)
(5.46969e-28 4.57451e-20 0)
(0 1.08744e-14 0)
(5.418e-28 5.48473e-15 0)
(0 -1.25118e-14 0)
(0 -8.88662e-15 0)
(0 -1.55356e-17 0)
(0 5.21491e-15 0)
(5.29238e-28 3.16262e-17 0)
(0 -1.73269e-15 0)
(0 1.11337e-14 0)
(5.21844e-28 9.43203e-15 0)
)
;

boundaryField
{
    INLET
    {
        type            cyclic;
    }
    OUTLET
    {
        type            cyclic;
    }
    CENTER
    {
        type            symmetryPlane;
    }
    WALL
    {
        type            extrapolatedCalculated;
        value           uniform (2.44077e-31 7.71373e-12 0);
    }
    frontAndBackPlanes
    {
        type            empty;
    }
}


// ************************************************************************* //
