/*--------------------------------*- C++ -*----------------------------------*\
| =========                 |                                                 |
| \\      /  F ield         | OpenFOAM: The Open Source CFD Toolbox           |
|  \\    /   O peration     | Version:  v1806                                 |
|   \\  /    A nd           | Web:      www.OpenFOAM.com                      |
|    \\/     M anipulation  |                                                 |
\*---------------------------------------------------------------------------*/
FoamFile
{
    version     2.0;
    format      ascii;
    class       volTensorField;
    location    "10000";
    object      grad(U);
}
// * * * * * * * * * * * * * * * * * * * * * * * * * * * * * * * * * * * * * //

dimensions      [0 0 -1 0 0 0 0];


internalField   nonuniform List<tensor> 
1025
(
(0 0 0 42.077 -7.44765e-12 0 0 0 0)
(0 0 0 42.043 -2.1409e-12 0 0 0 0)
(-8.50735e-18 4.83587e-31 0 42.0084 -1.37818e-14 0 0 0 0)
(-8.46762e-18 9.62657e-31 0 41.9718 3.61043e-13 0 0 0 0)
(0 0 0 41.9311 7.21211e-14 0 0 0 0)
(0 0 0 41.8837 -1.33328e-14 0 0 0 0)
(-1.66981e-17 9.49175e-31 0 41.8265 -5.39498e-15 0 0 0 0)
(0 -4.72371e-31 0 41.7551 2.29638e-15 0 0 0 0)
(1.6542e-17 -4.70151e-31 0 41.6637 2.09898e-15 0 0 0 0)
(0 0 0 41.5442 7.42735e-16 0 0 0 0)
(0 0 0 41.3854 2.4319e-16 0 0 0 0)
(0 0 0 41.1725 2.30582e-16 0 0 0 0)
(0 0 0 40.886 5.16658e-16 0 0 0 0)
(-9.69494e-17 9.1849e-31 0 40.5021 7.43149e-16 0 0 0 0)
(-6.43298e-17 9.14181e-31 0 39.9931 8.14251e-16 0 0 0 0)
(0 0 0 39.3302 7.89928e-16 0 0 0 0)
(0 4.52821e-31 0 38.4881 6.72761e-16 0 0 0 0)
(0 0 0 37.4506 3.79466e-16 0 0 0 0)
(0 0 0 36.2158 6.41062e-17 0 0 0 0)
(-6.28363e-17 0 0 34.7995 -2.93758e-16 0 0 0 0)
(0 0 0 33.2333 -5.29011e-16 0 0 0 0)
(6.22496e-17 0 0 31.5599 -6.47961e-16 0 0 0 0)
(6.19582e-17 -8.80479e-31 0 29.8261 -7.4084e-16 0 0 0 0)
(0 0 0 28.0766 -7.48246e-16 0 0 0 0)
(6.13778e-17 -8.72231e-31 0 26.3501 -6.84349e-16 0 0 0 0)
(6.10888e-17 0 0 24.6773 -7.35192e-16 0 0 0 0)
(0 0 0 23.0807 -4.9177e-16 0 0 0 0)
(0 0 0 21.5755 -4.82827e-16 0 0 0 0)
(6.02407e-17 -8.56072e-31 0 20.1706 -4.8504e-16 0 0 0 0)
(-5.99542e-17 0 0 18.87 -1.27715e-16 0 0 0 0)
(0 0 0 17.6735 -4.93361e-16 0 0 0 0)
(0 0 0 16.5786 -1.69297e-16 0 0 0 0)
(0 0 0 15.5804 1.37803e-16 0 0 0 0)
(-5.88348e-17 0 0 14.6728 -1.76396e-16 0 0 0 0)
(0 0 0 13.8491 -8.81184e-17 0 0 0 0)
(0 0 0 13.1023 -1.28919e-16 0 0 0 0)
(0 0 0 12.4256 5.28881e-17 0 0 0 0)
(0 0 0 11.8122 2.71777e-16 0 0 0 0)
(0 0 0 11.2558 -5.42741e-17 0 0 0 0)
(0 4.06482e-31 0 10.7507 -3.1563e-17 0 0 0 0)
(0 0 0 10.2916 2.08857e-16 0 0 0 0)
(0 0 0 9.87369 1.14488e-16 0 0 0 0)
(0 0 0 9.49272 9.5224e-17 0 0 0 0)
(1.12279e-16 -7.9779e-31 0 9.14487 2.8233e-17 0 0 0 0)
(-1.11758e-16 0 0 8.82675 2.27461e-16 0 0 0 0)
(0 3.95124e-31 0 8.53532 2.12746e-16 0 0 0 0)
(-1.10706e-16 3.93306e-31 0 8.26789 -7.88619e-17 0 0 0 0)
(0 0 0 8.02215 8.46299e-17 0 0 0 0)
(0 0 0 7.79596 2.00001e-16 0 0 0 0)
(0 0 0 7.58742 1.47252e-16 0 0 0 0)
(0 0 0 7.39488 -1.52757e-16 0 0 0 0)
(1.0815e-16 -7.68454e-31 0 7.21691 1.0784e-16 0 0 0 0)
(0 0 0 7.05216 4.39132e-17 0 0 0 0)
(-1.07143e-16 1.5226e-30 0 6.89947 -8.42706e-17 0 0 0 0)
(0 0 0 6.7578 3.56848e-16 0 0 0 0)
(0 0 0 6.62617 4.01172e-17 0 0 0 0)
(0 0 0 6.50376 -1.84374e-16 0 0 0 0)
(0 0 0 6.38985 5.70137e-17 0 0 0 0)
(0 0 0 6.28374 1.83534e-16 0 0 0 0)
(0 0 0 6.18481 6.73964e-17 0 0 0 0)
(0 7.36554e-31 0 6.09249 3.70224e-17 0 0 0 0)
(0 0 0 6.0063 3.17552e-17 0 0 0 0)
(0 0 0 5.92578 -1.69335e-17 0 0 0 0)
(0 0 0 5.85052 1.53221e-16 0 0 0 0)
(0 7.22825e-31 0 5.78013 7.05577e-17 0 0 0 0)
(1.01262e-16 0 0 5.71428 -1.40075e-18 0 0 0 0)
(0 0 0 5.65265 -6.00571e-17 0 0 0 0)
(0 0 0 5.59495 1.48206e-16 0 0 0 0)
(-9.98295e-17 7.09331e-31 0 5.54092 1.44928e-16 0 0 0 0)
(-9.93797e-17 7.06135e-31 0 5.49032 1.52042e-16 0 0 0 0)
(-9.8897e-17 7.02705e-31 0 5.44291 9.06425e-17 0 0 0 0)
(0 0 0 5.39852 -7.1328e-17 0 0 0 0)
(9.79818e-17 -6.96202e-31 0 5.35694 2.91498e-16 0 0 0 0)
(0 0 0 5.31798 -2.35114e-16 0 0 0 0)
(0 0 0 5.2815 -5.50611e-17 0 0 0 0)
(0 0 0 5.24736 7.95151e-17 0 0 0 0)
(0 0 0 5.21539 -1.41256e-17 0 0 0 0)
(0 0 0 5.18548 -3.33107e-17 0 0 0 0)
(0 0 0 5.1575 -3.02672e-17 0 0 0 0)
(0 0 0 5.13135 -6.03346e-17 0 0 0 0)
(0 0 0 5.10693 1.22794e-16 0 0 0 0)
(-9.39144e-17 0 0 5.08412 1.14977e-16 0 0 0 0)
(-1.87e-16 0 0 5.06286 3.70571e-17 0 0 0 0)
(0 0 0 5.04304 1.73549e-16 0 0 0 0)
(0 0 0 5.02458 -1.18563e-16 0 0 0 0)
(0 0 0 5.00743 3.18269e-17 0 0 0 0)
(0 0 0 4.9915 -5.92387e-17 0 0 0 0)
(0 0 0 4.97674 6.32033e-17 0 0 0 0)
(0 0 0 4.96306 5.91841e-17 0 0 0 0)
(0 0 0 4.95043 -1.43229e-16 0 0 0 0)
(0 0 0 4.93879 4.0871e-17 0 0 0 0)
(-1.79243e-16 0 0 4.92808 1.77465e-16 0 0 0 0)
(0 0 0 4.91826 5.01741e-17 0 0 0 0)
(0 0 0 4.90927 -3.10924e-17 0 0 0 0)
(0 0 0 4.90108 1.63814e-16 0 0 0 0)
(0 6.24847e-31 0 4.89364 -4.21059e-17 0 0 0 0)
(-1.75094e-16 6.22058e-31 0 4.88692 -7.56704e-17 0 0 0 0)
(-8.7129e-17 0 0 4.88089 3.2435e-16 0 0 0 0)
(0 0 0 4.8755 9.85262e-17 0 0 0 0)
(0 0 0 4.87073 -5.38361e-17 0 0 0 0)
(0 0 0 4.86654 -2.65983e-17 0 0 0 0)
(0 0 0 4.8629 8.08284e-17 0 0 0 0)
(0 0 0 4.85978 -1.07086e-16 0 0 0 0)
(0 0 0 4.85716 6.86856e-17 0 0 0 0)
(0 0 0 4.85501 2.74309e-17 0 0 0 0)
(-8.39245e-17 5.96319e-31 0 4.85331 -1.9836e-16 0 0 0 0)
(0 0 0 4.85205 3.01078e-16 0 0 0 0)
(1.66241e-16 0 0 4.85117 5.21636e-17 0 0 0 0)
(0 0 0 4.85068 -1.63375e-16 0 0 0 0)
(0 0 0 4.85056 1.48083e-16 0 0 0 0)
(-8.19625e-17 0 0 4.85078 -9.66072e-17 0 0 0 0)
(0 0 0 4.85133 -8.37353e-18 0 0 0 0)
(-1.62391e-16 0 0 4.85218 1.02087e-16 0 0 0 0)
(1.61648e-16 -5.74287e-31 0 4.85332 -1.34283e-16 0 0 0 0)
(1.60886e-16 0 0 4.85475 -4.53991e-17 0 0 0 0)
(0 0 0 4.85643 -2.53835e-17 0 0 0 0)
(0 0 0 4.85836 -4.75585e-18 0 0 0 0)
(0 0 0 4.86052 1.13979e-16 0 0 0 0)
(0 0 0 4.8629 1.15768e-16 0 0 0 0)
(-1.57161e-16 0 0 4.86549 5.55639e-17 0 0 0 0)
(0 0 0 4.86828 7.05437e-17 0 0 0 0)
(0 5.53092e-31 0 4.87124 4.29437e-17 0 0 0 0)
(-1.54953e-16 0 0 4.87438 5.71353e-17 0 0 0 0)
(0 0 0 4.87768 1.055e-16 0 0 0 0)
(0 0 0 4.88113 3.95128e-17 0 0 0 0)
(0 0 0 4.88472 -5.74638e-17 0 0 0 0)
(-1.52081e-16 0 0 4.88844 8.20354e-17 0 0 0 0)
(0 0 0 4.8923 2.57693e-16 0 0 0 0)
(1.50632e-16 -5.35152e-31 0 4.89625 8.27447e-17 0 0 0 0)
(0 0 0 4.90032 -8.97106e-17 0 0 0 0)
(0 0 0 4.90449 3.92487e-17 0 0 0 0)
(0 5.27719e-31 0 4.90875 6.75359e-17 0 0 0 0)
(0 0 0 4.91308 -5.20728e-17 0 0 0 0)
(-1.47157e-16 5.22805e-31 0 4.9175 -2.55112e-17 0 0 0 0)
(0 0 0 4.92198 6.52817e-17 0 0 0 0)
(-1.45779e-16 5.1791e-31 0 4.92653 6.51977e-19 0 0 0 0)
(0 0 0 4.93113 7.19336e-17 0 0 0 0)
(-1.44407e-16 0 0 4.93579 1.8771e-17 0 0 0 0)
(0 0 0 4.94048 1.58435e-18 0 0 0 0)
(1.43061e-16 -5.08253e-31 0 4.94522 -3.12888e-17 0 0 0 0)
(0 0 0 4.94999 4.14405e-18 0 0 0 0)
(0 0 0 4.95479 8.20997e-17 0 0 0 0)
(0 0 0 4.95961 -4.26892e-18 0 0 0 0)
(0 4.98817e-31 0 4.96445 1.31295e-16 0 0 0 0)
(-2.79475e-16 0 0 4.9693 5.60215e-17 0 0 0 0)
(0 0 0 4.97416 -3.91774e-17 0 0 0 0)
(-1.3844e-16 4.91839e-31 0 4.97903 2.44794e-17 0 0 0 0)
(0 4.89534e-31 0 4.9839 1.61718e-16 0 0 0 0)
(0 0 0 4.98876 6.07756e-17 0 0 0 0)
(0 4.8499e-31 0 4.99362 -2.81748e-17 0 0 0 0)
(0 0 0 4.99847 6.50161e-17 0 0 0 0)
(0 0 0 5.00331 -1.35222e-17 0 0 0 0)
(0 4.78147e-31 0 5.00812 -2.01516e-17 0 0 0 0)
(0 0 0 5.01291 -4.15233e-17 0 0 0 0)
(0 0 0 5.01768 -9.26549e-17 0 0 0 0)
(0 0 0 5.02243 -3.27753e-17 0 0 0 0)
(0 -4.69259e-31 0 5.02714 -9.83281e-17 0 0 0 0)
(0 0 0 5.03183 -5.06965e-17 0 0 0 0)
(1.30844e-16 -4.64852e-31 0 5.03647 -1.00446e-16 0 0 0 0)
(0 0 0 5.04108 -1.47147e-16 0 0 0 0)
(0 0 0 5.04565 7.89658e-17 0 0 0 0)
(0 0 0 5.05017 -2.10993e-18 0 0 0 0)
(0 0 0 5.05465 -9.60269e-17 0 0 0 0)
(0 0 0 5.05908 5.34147e-17 0 0 0 0)
(0 0 0 5.06347 7.15645e-17 0 0 0 0)
(0 0 0 5.0678 -5.5532e-17 0 0 0 0)
(-1.26032e-16 4.47754e-31 0 5.07208 4.49373e-17 0 0 0 0)
(0 0 0 5.0763 1.85588e-16 0 0 0 0)
(0 0 0 5.08047 -3.33013e-16 0 0 0 0)
(-1.2433e-16 0 0 5.08459 -2.13288e-16 0 0 0 0)
(0 4.39437e-31 0 5.08865 9.92119e-16 0 0 0 0)
(0 0 0 5.0926 -1.20852e-16 0 0 0 0)
(0 0 0 5.09649 -7.18147e-16 0 0 0 0)
(0 4.33362e-31 0 5.10035 1.4751e-16 0 0 0 0)
(-1.21421e-16 0 0 5.10416 8.15017e-16 0 0 0 0)
(-1.20729e-16 4.28915e-31 0 5.10787 -1.94101e-16 0 0 0 0)
(0 0 0 5.11151 -2.91682e-16 0 0 0 0)
(2.39275e-16 -4.25038e-31 0 5.11509 5.68666e-16 0 0 0 0)
(-1.19099e-16 4.23125e-31 0 5.11859 -2.19467e-16 0 0 0 0)
(1.18566e-16 0 0 5.12201 -1.1823e-16 0 0 0 0)
(0 4.19351e-31 0 5.12538 -2.90934e-16 0 0 0 0)
(0 0 0 5.12869 3.3896e-16 0 0 0 0)
(0 0 0 5.13191 2.725e-16 0 0 0 0)
(-2.32701e-16 4.13361e-31 0 5.13503 -6.00558e-16 0 0 0 0)
(1.15841e-16 -8.23103e-31 0 5.13809 2.12461e-16 0 0 0 0)
(0 0 0 5.14105 2.81402e-16 0 0 0 0)
(1.14712e-16 0 0 5.14393 -3.935e-16 0 0 0 0)
(0 0 0 5.14675 -4.14854e-16 0 0 0 0)
(0 0 0 5.14951 1.30927e-16 0 0 0 0)
(0 0 0 5.15218 7.89209e-16 0 0 0 0)
(0 0 0 5.15474 -7.25413e-16 0 0 0 0)
(-2.2432e-16 3.98473e-31 0 5.15723 1.26122e-16 0 0 0 0)
(0 0 0 5.15963 1.20104e-16 0 0 0 0)
(0 0 0 5.16195 5.72113e-17 0 0 0 0)
(0 0 0 5.16419 -9.16233e-18 0 0 0 0)
(0 0 0 5.16634 -9.5229e-17 0 0 0 0)
(0 0 0 5.1684 -1.13324e-16 0 0 0 0)
(-2.18083e-16 0 0 5.17039 -2.33392e-16 0 0 0 0)
(0 0 0 5.17228 6.04327e-16 0 0 0 0)
(2.1586e-16 0 0 5.17408 -6.85126e-16 0 0 0 0)
(0 0 0 5.17582 -2.63162e-17 0 0 0 0)
(0 0 0 5.17748 3.71603e-16 0 0 0 0)
(0 7.56097e-31 0 5.17903 2.56763e-16 0 0 0 0)
(0 0 0 5.18048 -2.63974e-16 0 0 0 0)
(-2.10915e-16 0 0 5.18185 -1.82619e-16 0 0 0 0)
(0 0 0 5.18314 4.68766e-16 0 0 0 0)
(0 0 0 5.18433 -3.3248e-16 0 0 0 0)
(0 -7.39014e-31 0 5.18545 2.40718e-16 0 0 0 0)
(0 0 0 5.18647 2.61444e-16 0 0 0 0)
(0 0 0 5.18739 -3.41306e-16 0 0 0 0)
(0 0 0 5.18823 3.55011e-16 0 0 0 0)
(0 0 0 5.18899 -4.06241e-16 0 0 0 0)
(2.03223e-16 0 0 5.18967 1.01791e-16 0 0 0 0)
(0 0 0 5.19026 7.61843e-16 0 0 0 0)
(0 0 0 5.19074 -3.92649e-16 0 0 0 0)
(0 0 0 5.19115 -4.34227e-16 0 0 0 0)
(0 0 0 5.19149 5.97872e-16 0 0 0 0)
(0 0 0 5.19172 -1.73872e-16 0 0 0 0)
(0 0 0 5.19187 -1.67162e-16 0 0 0 0)
(0 0 0 5.19192 6.03801e-16 0 0 0 0)
(-1.95529e-16 6.9466e-31 0 5.19187 -4.87913e-16 0 0 0 0)
(0 6.92103e-31 0 5.19176 -2.12029e-17 0 0 0 0)
(-1.9374e-16 0 0 5.19156 3.45975e-16 0 0 0 0)
(0 0 0 5.19127 -2.50094e-16 0 0 0 0)
(-1.91984e-16 0 0 5.19089 4.44812e-16 0 0 0 0)
(0 0 0 5.19041 -1.44214e-16 0 0 0 0)
(0 0 0 5.18985 -2.81088e-16 0 0 0 0)
(0 0 0 5.18922 2.00948e-16 0 0 0 0)
(-1.88397e-16 0 0 5.18849 2.94382e-16 0 0 0 0)
(-1.87397e-16 0 0 5.18767 -1.57251e-16 0 0 0 0)
(0 0 0 5.18677 -3.2614e-16 0 0 0 0)
(0 0 0 5.1858 5.65044e-16 0 0 0 0)
(-1.8478e-16 0 0 5.18472 9.38012e-17 0 0 0 0)
(0 0 0 5.18355 -2.1275e-16 0 0 0 0)
(0 6.50793e-31 0 5.18231 -1.87211e-16 0 0 0 0)
(-1.82393e-16 6.4799e-31 0 5.18101 1.51773e-16 0 0 0 0)
(0 0 0 5.17963 4.72071e-16 0 0 0 0)
(0 0 0 5.17814 -1.20657e-16 0 0 0 0)
(0 0 0 5.17656 -9.0317e-17 0 0 0 0)
(-3.577e-16 6.35402e-31 0 5.1749 1.33646e-17 0 0 0 0)
(-1.78098e-16 0 0 5.17316 7.16833e-17 0 0 0 0)
(0 0 0 5.17135 -8.52171e-17 0 0 0 0)
(-1.76465e-16 0 0 5.16946 2.19873e-16 0 0 0 0)
(0 0 0 5.16747 -3.02833e-16 0 0 0 0)
(5.24587e-16 -6.21236e-31 0 5.16541 -3.38865e-16 0 0 0 0)
(0 0 0 5.16328 1.51479e-16 0 0 0 0)
(0 0 0 5.16105 -2.78486e-16 0 0 0 0)
(0 0 0 5.15876 2.13359e-16 0 0 0 0)
(0 0 0 5.15638 -3.60569e-16 0 0 0 0)
(1.70773e-16 0 0 5.15393 3.89655e-17 0 0 0 0)
(0 6.03301e-31 0 5.1514 1.61259e-16 0 0 0 0)
(0 0 0 5.14879 -2.92465e-16 0 0 0 0)
(0 0 0 5.14611 -1.09e-16 0 0 0 0)
(3.35061e-16 0 0 5.14335 1.5763e-16 0 0 0 0)
(0 0 0 5.14049 -6.6321e-17 0 0 0 0)
(0 0 0 5.13756 -2.42424e-16 0 0 0 0)
(-1.65178e-16 0 0 5.13457 2.22004e-16 0 0 0 0)
(0 0 0 5.13151 1.00392e-16 0 0 0 0)
(-3.27292e-16 5.81388e-31 0 5.12837 1.53058e-17 0 0 0 0)
(-1.62891e-16 1.15741e-30 0 5.12517 -3.46447e-17 0 0 0 0)
(-4.86428e-16 5.76046e-31 0 5.1219 2.90902e-16 0 0 0 0)
(-3.22556e-16 0 0 5.11853 3.46716e-16 0 0 0 0)
(-3.21089e-16 5.70369e-31 0 5.11509 1.21657e-16 0 0 0 0)
(-3.19635e-16 0 0 5.11158 9.28335e-17 0 0 0 0)
(-3.18194e-16 5.65226e-31 0 5.10801 -1.51064e-16 0 0 0 0)
(0 0 0 5.10437 1.13186e-16 0 0 0 0)
(0 0 0 5.10066 1.19635e-16 0 0 0 0)
(0 0 0 5.09688 -2.3738e-16 0 0 0 0)
(0 0 0 5.09303 2.03618e-16 0 0 0 0)
(-3.10724e-16 5.51956e-31 0 5.08912 2.06277e-16 0 0 0 0)
(0 0 0 5.08513 1.27709e-16 0 0 0 0)
(0 0 0 5.08107 1.08732e-16 0 0 0 0)
(0 0 0 5.07694 -2.97611e-16 0 0 0 0)
(-3.05127e-16 5.42015e-31 0 5.07277 3.96603e-17 0 0 0 0)
(0 5.39295e-31 0 5.06853 4.30994e-16 0 0 0 0)
(0 0 0 5.06421 -1.34852e-17 0 0 0 0)
(0 0 0 5.05983 -3.01194e-17 0 0 0 0)
(-2.99305e-16 0 0 5.05538 4.41562e-16 0 0 0 0)
(0 0 0 5.05086 1.42997e-16 0 0 0 0)
(-2.9658e-16 0 0 5.04629 1.4316e-16 0 0 0 0)
(-5.90267e-16 5.24262e-31 0 5.04166 4.28388e-16 0 0 0 0)
(0 0 0 5.03696 3.05291e-16 0 0 0 0)
(0 0 0 5.03219 -4.45214e-17 0 0 0 0)
(0 0 0 5.02737 -4.0361e-17 0 0 0 0)
(0 0 0 5.0225 2.30523e-16 0 0 0 0)
(0 0 0 5.01756 2.13643e-16 0 0 0 0)
(0 5.09699e-31 0 5.01257 1.74767e-16 0 0 0 0)
(0 -5.07294e-31 0 5.00751 1.51351e-16 0 0 0 0)
(0 0 0 5.0024 1.57024e-16 0 0 0 0)
(0 5.02549e-31 0 4.99722 1.73931e-16 0 0 0 0)
(0 5.0021e-31 0 4.992 9.98322e-17 0 0 0 0)
(0 0 0 4.98671 -1.01751e-16 0 0 0 0)
(2.78996e-16 0 0 4.98138 1.00218e-16 0 0 0 0)
(0 -4.92999e-31 0 4.97598 -1.99657e-16 0 0 0 0)
(0 0 0 4.97053 -2.07657e-16 0 0 0 0)
(0 0 0 4.96503 1.42257e-16 0 0 0 0)
(0 0 0 4.95947 -1.23678e-16 0 0 0 0)
(0 0 0 4.95386 1.3315e-16 0 0 0 0)
(0 0 0 4.9482 1.33935e-16 0 0 0 0)
(0 0 0 4.94248 -1.63576e-16 0 0 0 0)
(0 4.77358e-31 0 4.93672 9.30388e-17 0 0 0 0)
(0 0 0 4.93091 3.44098e-17 0 0 0 0)
(0 0 0 4.92504 -1.86248e-17 0 0 0 0)
(0 0 0 4.91913 5.64451e-18 0 0 0 0)
(0 0 0 4.91316 4.23742e-17 0 0 0 0)
(0 0 0 4.90715 6.21239e-17 0 0 0 0)
(0 -4.64106e-31 0 4.9011 7.57252e-17 0 0 0 0)
(0 0 0 4.895 3.64133e-16 0 0 0 0)
(0 0 0 4.88884 7.27883e-17 0 0 0 0)
(0 0 0 4.88264 6.71231e-18 0 0 0 0)
(0 0 0 4.87641 1.83254e-16 0 0 0 0)
(-2.5513e-16 0 0 4.87012 1.32208e-16 0 0 0 0)
(0 0 0 4.86378 -1.3142e-16 0 0 0 0)
(0 0 0 4.8574 8.58354e-17 0 0 0 0)
(0 0 0 4.85098 5.0219e-17 0 0 0 0)
(0 0 0 4.84452 -2.40162e-16 0 0 0 0)
(0 0 0 4.83802 2.19268e-16 0 0 0 0)
(0 0 0 4.83147 -4.72899e-17 0 0 0 0)
(0 0 0 4.82488 -1.22035e-16 0 0 0 0)
(0 0 0 4.81824 -2.64902e-16 0 0 0 0)
(2.44666e-16 0 0 4.81158 -2.68331e-16 0 0 0 0)
(0 0 0 4.80487 2.0363e-16 0 0 0 0)
(0 0 0 4.79812 6.65491e-17 0 0 0 0)
(0 0 0 4.79133 -6.48248e-17 0 0 0 0)
(0 0 0 4.78451 1.04967e-16 0 0 0 0)
(0 0 0 4.77765 1.52258e-16 0 0 0 0)
(0 0 0 4.77075 -1.5932e-16 0 0 0 0)
(0 0 0 4.76382 -7.25256e-18 0 0 0 0)
(0 0 0 4.75685 2.80609e-16 0 0 0 0)
(-4.68751e-16 8.32669e-31 0 4.74983 -1.53339e-16 0 0 0 0)
(0 0 0 4.74279 -5.39935e-18 0 0 0 0)
(0 0 0 4.73571 2.59446e-16 0 0 0 0)
(-2.31177e-16 0 0 4.7286 -8.31261e-17 0 0 0 0)
(0 0 0 4.72146 3.32719e-17 0 0 0 0)
(0 0 0 4.71429 2.01942e-16 0 0 0 0)
(-2.27942e-16 0 0 4.70708 1.74575e-16 0 0 0 0)
(4.53687e-16 0 0 4.69984 -2.08448e-16 0 0 0 0)
(0 0 0 4.69256 3.58765e-18 0 0 0 0)
(0 0 0 4.68526 2.2504e-16 0 0 0 0)
(-4.47455e-16 0 0 4.67792 1.40726e-16 0 0 0 0)
(0 0 0 4.67055 2.14551e-16 0 0 0 0)
(0 0 0 4.66316 7.4798e-17 0 0 0 0)
(0 0 0 4.65574 5.8844e-17 0 0 0 0)
(-4.39105e-16 7.80007e-31 0 4.64829 6.58582e-17 0 0 0 0)
(-4.37066e-16 0 0 4.64081 8.81869e-17 0 0 0 0)
(0 0 0 4.6333 2.96864e-16 0 0 0 0)
(-4.32822e-16 0 0 4.62577 1.66389e-16 0 0 0 0)
(0 0 0 4.6182 2.39388e-16 0 0 0 0)
(-4.28877e-16 7.61839e-31 0 4.61062 2.5254e-16 0 0 0 0)
(4.26932e-16 0 0 4.60301 -7.01973e-17 0 0 0 0)
(0 0 0 4.59537 -1.95241e-16 0 0 0 0)
(4.22882e-16 -7.5119e-31 0 4.5877 -4.79108e-16 0 0 0 0)
(4.20991e-16 0 0 4.58001 -2.88221e-16 0 0 0 0)
(0 0 0 4.5723 -6.32374e-17 0 0 0 0)
(-4.17052e-16 7.40833e-31 0 4.56456 3.32681e-17 0 0 0 0)
(0 0 0 4.5568 1.7832e-16 0 0 0 0)
(0 0 0 4.54902 9.55131e-17 0 0 0 0)
(-4.11181e-16 7.30404e-31 0 4.54121 1.34527e-16 0 0 0 0)
(0 0 0 4.53338 -5.61654e-17 0 0 0 0)
(-4.07423e-16 0 0 4.52554 -7.77493e-17 0 0 0 0)
(0 0 0 4.51767 -4.24427e-17 0 0 0 0)
(0 0 0 4.50978 -3.82655e-17 0 0 0 0)
(0 0 0 4.50187 1.58687e-16 0 0 0 0)
(0 0 0 4.49394 9.34089e-17 0 0 0 0)
(0 0 0 4.48599 5.62564e-17 0 0 0 0)
(0 0 0 4.47802 4.40364e-17 0 0 0 0)
(0 0 0 4.47004 1.20571e-16 0 0 0 0)
(-3.92327e-16 6.96912e-31 0 4.46203 2.8899e-16 0 0 0 0)
(-3.90338e-16 0 0 4.45401 -5.63166e-17 0 0 0 0)
(0 0 0 4.44597 -2.57436e-16 0 0 0 0)
(0 0 0 4.43791 -9.29046e-17 0 0 0 0)
(0 0 0 4.42984 1.21019e-16 0 0 0 0)
(-3.83099e-16 6.80521e-31 0 4.42175 3.12287e-16 0 0 0 0)
(0 0 0 4.41364 1.58415e-16 0 0 0 0)
(3.79665e-16 -6.74421e-31 0 4.40552 1.27779e-16 0 0 0 0)
(0 0 0 4.39738 -5.13818e-17 0 0 0 0)
(3.76125e-16 0 0 4.38924 -9.62952e-17 0 0 0 0)
(0 0 0 4.38107 6.3763e-17 0 0 0 0)
(0 0 0 4.37289 -1.85522e-17 0 0 0 0)
(0 0 0 4.3647 -5.50792e-17 0 0 0 0)
(0 0 0 4.3565 -3.2106e-17 0 0 0 0)
(0 0 0 4.34828 -1.91142e-18 0 0 0 0)
(0 0 0 4.34004 9.2341e-17 0 0 0 0)
(0 0 0 4.3318 -8.22393e-17 0 0 0 0)
(-3.6229e-16 0 0 4.32354 -3.43778e-17 0 0 0 0)
(0 0 0 4.31528 2.65381e-16 0 0 0 0)
(0 0 0 4.307 3.08844e-16 0 0 0 0)
(0 0 0 4.2987 2.73893e-16 0 0 0 0)
(0 0 0 4.2904 1.34177e-16 0 0 0 0)
(-7.0763e-16 6.28502e-31 0 4.28209 -2.41377e-17 0 0 0 0)
(-3.52197e-16 0 0 4.27378 2.19519e-16 0 0 0 0)
(0 6.22521e-31 0 4.26545 3.24551e-16 0 0 0 0)
(0 0 0 4.25711 6.52169e-17 0 0 0 0)
(0 0 0 4.24876 -6.45513e-17 0 0 0 0)
(0 6.13885e-31 0 4.2404 1.41e-16 0 0 0 0)
(0 6.10894e-31 0 4.23204 4.31057e-16 0 0 0 0)
(-3.42374e-16 6.08178e-31 0 4.22366 4.20543e-16 0 0 0 0)
(0 0 0 4.21528 9.37671e-17 0 0 0 0)
(0 0 0 4.2069 -7.67864e-18 0 0 0 0)
(0 0 0 4.1985 -6.21617e-17 0 0 0 0)
(1.00797e-15 -5.9684e-31 0 4.1901 -2.32502e-16 0 0 0 0)
(-6.68798e-16 5.94012e-31 0 4.18169 -1.67746e-16 0 0 0 0)
(0 0 0 4.17328 -1.01975e-16 0 0 0 0)
(0 0 0 4.16486 -1.09496e-17 0 0 0 0)
(0 0 0 4.15643 2.67379e-18 0 0 0 0)
(0 0 0 4.148 3.64197e-17 0 0 0 0)
(-6.53323e-16 0 0 4.13956 1.08731e-16 0 0 0 0)
(0 0 0 4.13113 1.85783e-16 0 0 0 0)
(0 0 0 4.12268 1.02299e-17 0 0 0 0)
(0 0 0 4.11423 -1.77287e-16 0 0 0 0)
(0 0 0 4.10578 -5.37509e-17 0 0 0 0)
(0 0 0 4.09732 -1.72366e-18 0 0 0 0)
(-3.17598e-16 5.64167e-31 0 4.08886 5.16909e-17 0 0 0 0)
(0 5.6143e-31 0 4.08039 5.40653e-17 0 0 0 0)
(0 0 0 4.07192 -9.22366e-17 0 0 0 0)
(0 0 0 4.06345 -5.11139e-17 0 0 0 0)
(0 0 0 4.05498 -9.87475e-17 0 0 0 0)
(0 0 0 4.04651 -5.79291e-17 0 0 0 0)
(0 0 0 4.03803 -1.07438e-16 0 0 0 0)
(-6.14683e-16 5.45948e-31 0 4.02955 -9.23952e-17 0 0 0 0)
(0 0 0 4.02107 1.34075e-16 0 0 0 0)
(0 5.40846e-31 0 4.01259 3.46514e-16 0 0 0 0)
(0 0 0 4.0041 2.35437e-16 0 0 0 0)
(-6.03085e-16 0 0 3.99562 -2.382e-16 0 0 0 0)
(6.0052e-16 0 0 3.98713 1.05504e-18 0 0 0 0)
(0 0 0 3.97865 1.68271e-16 0 0 0 0)
(0 5.28312e-31 0 3.97016 2.09009e-16 0 0 0 0)
(0 0 0 3.96168 2.81026e-16 0 0 0 0)
(0 0 0 3.95319 -4.48036e-17 0 0 0 0)
(-5.86385e-16 0 0 3.94471 -1.71251e-16 0 0 0 0)
(-5.83758e-16 0 0 3.93623 1.99729e-17 0 0 0 0)
(0 0 0 3.92775 1.16479e-16 0 0 0 0)
(-5.78179e-16 5.13527e-31 0 3.91927 7.86712e-19 0 0 0 0)
(0 0 0 3.91078 1.22666e-16 0 0 0 0)
(0 0 0 3.9023 2.65724e-16 0 0 0 0)
(-5.70201e-16 5.0644e-31 0 3.89382 4.00074e-16 0 0 0 0)
(0 0 0 3.88535 3.55997e-16 0 0 0 0)
(0 0 0 3.87688 2.54243e-16 0 0 0 0)
(0 0 0 3.86841 2.03936e-16 0 0 0 0)
(0 0 0 3.85993 8.42895e-17 0 0 0 0)
(0 0 0 3.85147 1.69763e-16 0 0 0 0)
(0 0 0 3.843 -1.24266e-16 0 0 0 0)
(5.51813e-16 0 0 3.83454 -3.67708e-16 0 0 0 0)
(-5.48952e-16 0 0 3.82608 -1.81066e-16 0 0 0 0)
(0 0 0 3.81763 6.59811e-18 0 0 0 0)
(0 0 0 3.80918 -4.36022e-17 0 0 0 0)
(5.41408e-16 -4.80867e-31 0 3.80073 -2.65243e-16 0 0 0 0)
(0 0 0 3.79229 -3.30979e-16 0 0 0 0)
(0 0 0 3.78385 -1.47806e-16 0 0 0 0)
(0 0 0 3.77541 2.00807e-18 0 0 0 0)
(-5.31388e-16 4.71968e-31 0 3.76698 8.88671e-17 0 0 0 0)
(0 0 0 3.75855 -3.24969e-17 0 0 0 0)
(0 0 0 3.75013 -3.70445e-17 0 0 0 0)
(0 0 0 3.74171 1.97942e-16 0 0 0 0)
(-1.04282e-15 9.26213e-31 0 3.7333 1.51201e-16 0 0 0 0)
(0 0 0 3.72489 -7.00704e-17 0 0 0 0)
(5.16641e-16 -9.17739e-31 0 3.71649 -3.02159e-16 0 0 0 0)
(0 0 0 3.70809 -1.81284e-17 0 0 0 0)
(0 0 0 3.6997 5.60513e-16 0 0 0 0)
(-5.0934e-16 4.52385e-31 0 3.69131 6.42862e-16 0 0 0 0)
(0 0 0 3.68292 2.21535e-16 0 0 0 0)
(0 0 0 3.67455 1.36694e-16 0 0 0 0)
(-1.00449e-15 8.92163e-31 0 3.66618 3.66683e-16 0 0 0 0)
(0 4.43844e-31 0 3.65782 1.62818e-16 0 0 0 0)
(0 0 0 3.64946 -8.8235e-17 0 0 0 0)
(0 0 0 3.64111 -7.41684e-17 0 0 0 0)
(0 0 0 3.63276 3.30651e-17 0 0 0 0)
(0 0 0 3.62443 2.15839e-16 0 0 0 0)
(-4.88203e-16 8.67223e-31 0 3.61609 3.92343e-16 0 0 0 0)
(9.71925e-16 0 0 3.60777 4.56954e-16 0 0 0 0)
(-9.67485e-16 8.59299e-31 0 3.59945 3.29155e-16 0 0 0 0)
(0 0 0 3.59114 4.45691e-16 0 0 0 0)
(-9.58182e-16 4.25518e-31 0 3.58284 5.44573e-16 0 0 0 0)
(0 0 0 3.57454 1.72577e-16 0 0 0 0)
(-4.74661e-16 4.21584e-31 0 3.56625 -1.7035e-16 0 0 0 0)
(0 -4.19702e-31 0 3.55797 -1.07699e-16 0 0 0 0)
(0 0 0 3.54969 -7.41138e-17 0 0 0 0)
(0 0 0 3.54143 -6.65232e-17 0 0 0 0)
(0 0 0 3.53317 -1.34838e-16 0 0 0 0)
(0 4.1189e-31 0 3.52491 -3.36056e-16 0 0 0 0)
(4.61473e-16 -4.0987e-31 0 3.51667 -2.96998e-16 0 0 0 0)
(0 0 0 3.50844 -1.28257e-16 0 0 0 0)
(0 0 0 3.50021 -8.09692e-17 0 0 0 0)
(0 -4.04145e-31 0 3.49199 -1.86513e-16 0 0 0 0)
(0 0 0 3.48378 -1.09333e-16 0 0 0 0)
(0 0 0 3.47558 -5.68334e-18 0 0 0 0)
(0 0 0 3.46738 1.58303e-16 0 0 0 0)
(-4.46512e-16 7.93164e-31 0 3.4592 1.76065e-16 0 0 0 0)
(-8.8904e-16 0 0 3.45102 7.13979e-17 0 0 0 0)
(0 0 0 3.44285 5.68177e-17 0 0 0 0)
(0 7.82237e-31 0 3.43469 3.92659e-17 0 0 0 0)
(0 0 0 3.42654 2.96504e-16 0 0 0 0)
(0 0 0 3.4184 4.97338e-16 0 0 0 0)
(4.34153e-16 -7.71211e-31 0 3.41026 2.78515e-16 0 0 0 0)
(0 0 0 3.40214 6.83056e-17 0 0 0 0)
(0 0 0 3.39403 7.41888e-17 0 0 0 0)
(0 0 0 3.38592 3.44997e-16 0 0 0 0)
(0 0 0 3.37782 5.58847e-16 0 0 0 0)
(0 0 0 3.36974 2.5978e-16 0 0 0 0)
(0 0 0 3.36166 -2.70884e-16 0 0 0 0)
(1.68062e-15 -7.46346e-31 0 3.35359 -2.87725e-16 0 0 0 0)
(-8.36369e-16 0 0 3.34553 1.74286e-16 0 0 0 0)
(0 0 0 3.33748 2.54315e-16 0 0 0 0)
(0 0 0 3.32944 2.5512e-16 0 0 0 0)
(0 0 0 3.32141 9.91229e-17 0 0 0 0)
(-8.20768e-16 0 0 3.3134 -1.05863e-16 0 0 0 0)
(0 0 0 3.3054 -5.80105e-17 0 0 0 0)
(0 0 0 3.29743 -1.02158e-16 0 0 0 0)
(0 0 0 3.28948 -8.45685e-17 0 0 0 0)
(0 0 0 3.28155 -3.40101e-16 0 0 0 0)
(0 0 0 3.27366 -6.77938e-16 0 0 0 0)
(0 -7.0873e-31 0 3.26587 -3.61244e-16 0 0 0 0)
(-7.94217e-16 0 0 3.2581 1.96279e-16 0 0 0 0)
(-7.90511e-16 0 0 3.25031 1.60091e-16 0 0 0 0)
(-7.8684e-16 0 0 3.24252 1.80671e-16 0 0 0 0)
(0 0 0 3.23462 2.55124e-16 0 0 0 0)
(0 6.92263e-31 0 3.22672 -1.23833e-16 0 0 0 0)
(-7.75849e-16 6.89092e-31 0 3.21883 -1.2788e-16 0 0 0 0)
(-7.72136e-16 0 0 3.21094 4.64785e-17 0 0 0 0)
(0 0 0 3.20306 -8.77689e-17 0 0 0 0)
(0 0 0 3.19519 2.60596e-17 0 0 0 0)
(-7.61378e-16 0 0 3.18733 3.10926e-16 0 0 0 0)
(0 0 0 3.17947 1.90971e-16 0 0 0 0)
(0 0 0 3.17163 1.1033e-16 0 0 0 0)
(-7.50749e-16 6.66799e-31 0 3.16379 2.6456e-16 0 0 0 0)
(0 0 0 3.15597 4.10686e-16 0 0 0 0)
(0 0 0 3.14816 4.63842e-16 0 0 0 0)
(0 0 0 3.14035 1.45014e-16 0 0 0 0)
(0 0 0 3.13256 7.09378e-17 0 0 0 0)
(0 0 0 3.12478 2.51705e-16 0 0 0 0)
(0 0 0 3.11701 5.57301e-17 0 0 0 0)
(0 0 0 3.10925 -9.16201e-17 0 0 0 0)
(0 0 0 3.10151 -3.92595e-17 0 0 0 0)
(0 0 0 3.09377 1.65082e-16 0 0 0 0)
(0 0 0 3.08604 2.55222e-16 0 0 0 0)
(7.12991e-16 -6.33263e-31 0 3.07833 -2.41607e-17 0 0 0 0)
(0 0 0 3.07062 -2.07431e-16 0 0 0 0)
(0 0 0 3.06293 2.08559e-16 0 0 0 0)
(-1.40586e-15 6.24329e-31 0 3.05524 6.79312e-16 0 0 0 0)
(0 0 0 3.04757 2.95809e-16 0 0 0 0)
(0 0 0 3.03991 -3.12823e-16 0 0 0 0)
(6.93011e-16 -6.15518e-31 0 3.03226 -5.46212e-16 0 0 0 0)
(0 0 0 3.02462 -4.27258e-16 0 0 0 0)
(0 0 0 3.01699 -3.00554e-16 0 0 0 0)
(6.83367e-16 0 0 3.00937 -1.56564e-16 0 0 0 0)
(0 6.04149e-31 0 3.00176 1.65287e-16 0 0 0 0)
(0 0 0 2.99417 1.44876e-16 0 0 0 0)
(0 0 0 2.98658 -4.3014e-17 0 0 0 0)
(0 0 0 2.97901 -7.36048e-17 0 0 0 0)
(0 0 0 2.97145 -2.50561e-16 0 0 0 0)
(1.32868e-15 -5.90052e-31 0 2.9639 -4.97476e-16 0 0 0 0)
(0 0 0 2.95636 1.97415e-17 0 0 0 0)
(0 5.84323e-31 0 2.94883 4.02324e-16 0 0 0 0)
(-6.55345e-16 5.82063e-31 0 2.94131 4.26892e-16 0 0 0 0)
(0 0 0 2.9338 3.84615e-16 0 0 0 0)
(0 0 0 2.9263 2.19426e-16 0 0 0 0)
(-6.4659e-16 5.74287e-31 0 2.91883 6.11916e-16 0 0 0 0)
(0 0 0 2.91136 9.2405e-16 0 0 0 0)
(0 0 0 2.90389 4.42606e-16 0 0 0 0)
(0 0 0 2.89643 -1.66282e-16 0 0 0 0)
(6.34482e-16 0 0 2.88899 -1.68532e-17 0 0 0 0)
(0 5.60385e-31 0 2.88157 2.50864e-16 0 0 0 0)
(0 0 0 2.87414 2.84057e-16 0 0 0 0)
(0 0 0 2.86673 8.61115e-16 0 0 0 0)
(-6.21676e-16 5.52159e-31 0 2.85933 1.08697e-15 0 0 0 0)
(-6.19403e-16 5.5014e-31 0 2.85194 4.31667e-16 0 0 0 0)
(0 0 0 2.84458 2.92172e-16 0 0 0 0)
(6.12682e-16 -5.44171e-31 0 2.83721 -1.19181e-17 0 0 0 0)
(0 0 0 2.82985 -4.00844e-16 0 0 0 0)
(0 0 0 2.82252 -4.17207e-17 0 0 0 0)
(0 0 0 2.8152 2.47815e-16 0 0 0 0)
(0 0 0 2.80788 5.12801e-16 0 0 0 0)
(-5.9861e-16 1.06334e-30 0 2.80056 5.58451e-16 0 0 0 0)
(0 0 0 2.79326 4.35934e-16 0 0 0 0)
(0 0 0 2.78597 1.04634e-16 0 0 0 0)
(0 0 0 2.7787 1.10857e-16 0 0 0 0)
(-5.88217e-16 5.22442e-31 0 2.77145 6.31843e-16 0 0 0 0)
(0 0 0 2.76419 5.48711e-16 0 0 0 0)
(-5.82153e-16 5.17056e-31 0 2.75695 2.11268e-16 0 0 0 0)
(0 0 0 2.74971 2.73228e-16 0 0 0 0)
(0 0 0 2.7425 4.38817e-16 0 0 0 0)
(-5.7426e-16 5.10045e-31 0 2.73529 5.40849e-16 0 0 0 0)
(0 0 0 2.72809 4.24304e-16 0 0 0 0)
(0 0 0 2.7209 2.40123e-16 0 0 0 0)
(-1.69973e-15 5.03222e-31 0 2.71374 2.55676e-16 0 0 0 0)
(0 0 0 2.70657 1.61593e-16 0 0 0 0)
(0 0 0 2.69942 -1.50435e-16 0 0 0 0)
(1.11635e-15 -4.9576e-31 0 2.69227 -5.3834e-16 0 0 0 0)
(0 4.93322e-31 0 2.68513 -7.57522e-16 0 0 0 0)
(0 4.9171e-31 0 2.67801 -2.45782e-16 0 0 0 0)
(-1.10183e-15 4.89311e-31 0 2.67091 6.02462e-16 0 0 0 0)
(0 0 0 2.66381 2.52078e-16 0 0 0 0)
(1.09119e-15 -9.69168e-31 0 2.65671 -2.35585e-16 0 0 0 0)
(0 0 0 2.64963 -4.48092e-17 0 0 0 0)
(0 0 0 2.64257 1.11845e-16 0 0 0 0)
(1.0756e-15 0 0 2.63551 1.50173e-16 0 0 0 0)
(-1.0705e-15 0 0 2.62847 4.04796e-16 0 0 0 0)
(-2.1309e-15 9.4631e-31 0 2.62143 9.58401e-16 0 0 0 0)
(-1.06211e-15 9.43343e-31 0 2.61442 1.47641e-15 0 0 0 0)
(0 0 0 2.60741 1.40555e-15 0 0 0 0)
(-1.05058e-15 4.66553e-31 0 2.60041 8.38156e-16 0 0 0 0)
(0 -4.64393e-31 0 2.59342 4.3373e-16 0 0 0 0)
(1.0409e-15 0 0 2.58644 1.09435e-16 0 0 0 0)
(0 0 0 2.57947 -3.69736e-16 0 0 0 0)
(1.03139e-15 -4.58031e-31 0 2.57251 -5.86079e-16 0 0 0 0)
(1.02515e-15 -4.5526e-31 0 2.56556 -6.09357e-16 0 0 0 0)
(0 0 0 2.55861 -3.80895e-16 0 0 0 0)
(0 0 0 2.55168 -2.68296e-16 0 0 0 0)
(0 0 0 2.54477 1.46452e-16 0 0 0 0)
(0 0 0 2.53787 5.84114e-16 0 0 0 0)
(0 0 0 2.53097 1.25865e-16 0 0 0 0)
(9.97977e-16 -4.43191e-31 0 2.52408 2.21847e-16 0 0 0 0)
(-9.93587e-16 0 0 2.51721 8.49006e-16 0 0 0 0)
(-9.87794e-16 4.38668e-31 0 2.51035 4.9829e-16 0 0 0 0)
(9.84922e-16 -4.37393e-31 0 2.5035 1.51344e-18 0 0 0 0)
(-9.79229e-16 4.34865e-31 0 2.49666 2.8626e-16 0 0 0 0)
(0 0 0 2.48983 1.62442e-16 0 0 0 0)
(0 0 0 2.483 3.06225e-16 0 0 0 0)
(-9.6528e-16 4.2867e-31 0 2.47619 7.8054e-16 0 0 0 0)
(-9.61172e-16 8.53692e-31 0 2.46939 1.13724e-15 0 0 0 0)
(9.55749e-16 0 0 2.4626 5.76923e-16 0 0 0 0)
(0 0 0 2.45582 -5.18707e-16 0 0 0 0)
(0 -8.41753e-31 0 2.44906 -7.68785e-16 0 0 0 0)
(0 0 0 2.4423 -4.36567e-16 0 0 0 0)
(0 0 0 2.43554 6.37207e-16 0 0 0 0)
(-9.34657e-16 1.24521e-30 0 2.4288 1.51468e-15 0 0 0 0)
(0 0 0 2.42207 8.05416e-16 0 0 0 0)
(0 4.11102e-31 0 2.41535 -1.91078e-16 0 0 0 0)
(0 0 0 2.40865 3.80327e-17 0 0 0 0)
(0 0 0 2.40196 3.84236e-16 0 0 0 0)
(-9.12014e-16 8.10031e-31 0 2.39527 -4.03807e-17 0 0 0 0)
(0 0 0 2.38859 -4.81361e-16 0 0 0 0)
(0 0 0 2.38192 -4.46075e-16 0 0 0 0)
(-1.7998e-15 0 0 2.37527 -3.97803e-16 0 0 0 0)
(0 0 0 2.36862 -4.07686e-16 0 0 0 0)
(8.91614e-16 -7.91912e-31 0 2.36198 -3.48779e-16 0 0 0 0)
(0 0 0 2.35535 -2.95881e-16 0 0 0 0)
(0 0 0 2.34874 7.05631e-17 0 0 0 0)
(-8.78893e-16 3.90307e-31 0 2.34213 4.51166e-16 0 0 0 0)
(0 0 0 2.33553 3.19539e-16 0 0 0 0)
(0 0 0 2.32894 1.92433e-16 0 0 0 0)
(0 0 0 2.32236 1.70957e-16 0 0 0 0)
(0 0 0 2.3158 2.04403e-16 0 0 0 0)
(0 0 0 2.30925 3.46011e-16 0 0 0 0)
(0 0 0 2.3027 2.12251e-16 0 0 0 0)
(-8.50221e-16 0 0 2.29616 -2.30367e-16 0 0 0 0)
(0 0 0 2.28963 -7.76452e-17 0 0 0 0)
(0 0 0 2.28311 1.69993e-16 0 0 0 0)
(-1.67729e-15 0 0 2.2766 1.3636e-16 0 0 0 0)
(-8.35544e-16 0 0 2.27011 4.84037e-16 0 0 0 0)
(0 0 0 2.26362 2.46604e-16 0 0 0 0)
(-1.65477e-15 0 0 2.25714 -3.86539e-17 0 0 0 0)
(8.22362e-16 0 0 2.25067 -2.24295e-16 0 0 0 0)
(8.19379e-16 -7.27755e-31 0 2.24421 -5.31621e-16 0 0 0 0)
(0 0 0 2.23776 -2.11474e-16 0 0 0 0)
(0 0 0 2.23132 3.45272e-16 0 0 0 0)
(-8.0766e-16 7.17346e-31 0 2.22488 5.11685e-16 0 0 0 0)
(-1.60765e-15 0 0 2.21846 1.72239e-16 0 0 0 0)
(0 0 0 2.21205 -1.58806e-16 0 0 0 0)
(0 0 0 2.20565 -7.064e-17 0 0 0 0)
(-1.58509e-15 0 0 2.19926 3.58061e-16 0 0 0 0)
(-1.57771e-15 0 0 2.19287 6.63311e-16 0 0 0 0)
(0 0 0 2.1865 4.66678e-16 0 0 0 0)
(-7.81576e-16 0 0 2.18013 3.74301e-16 0 0 0 0)
(-7.77987e-16 6.90991e-31 0 2.17377 8.50073e-16 0 0 0 0)
(-7.7443e-16 0 0 2.16743 8.90906e-16 0 0 0 0)
(0 0 0 2.16109 6.10232e-16 0 0 0 0)
(0 0 0 2.15476 5.86408e-16 0 0 0 0)
(-7.63953e-16 6.78527e-31 0 2.14844 4.93531e-16 0 0 0 0)
(0 0 0 2.14213 4.50224e-16 0 0 0 0)
(0 0 0 2.13583 5.31751e-16 0 0 0 0)
(-7.52918e-16 0 0 2.12954 3.79614e-16 0 0 0 0)
(0 0 0 2.12326 2.45089e-16 0 0 0 0)
(0 0 0 2.11699 5.05702e-16 0 0 0 0)
(0 6.59204e-31 0 2.11072 9.13513e-16 0 0 0 0)
(-1.47792e-15 6.56328e-31 0 2.10447 9.64011e-16 0 0 0 0)
(0 0 0 2.09822 3.31963e-16 0 0 0 0)
(0 0 0 2.09198 -1.54259e-16 0 0 0 0)
(0 0 0 2.08575 3.06664e-16 0 0 0 0)
(0 6.44382e-31 0 2.07953 4.7183e-16 0 0 0 0)
(0 0 0 2.07333 -1.52647e-17 0 0 0 0)
(0 0 0 2.06712 1.95786e-17 0 0 0 0)
(0 0 0 2.06092 1.48273e-16 0 0 0 0)
(0 0 0 2.05474 4.68889e-17 0 0 0 0)
(0 0 0 2.04856 1.80392e-16 0 0 0 0)
(1.41025e-15 -6.26278e-31 0 2.0424 3.8878e-16 0 0 0 0)
(0 0 0 2.03624 2.72113e-16 0 0 0 0)
(0 0 0 2.03009 4.66336e-17 0 0 0 0)
(0 6.17285e-31 0 2.02395 7.44485e-18 0 0 0 0)
(0 0 0 2.01782 1.16138e-16 0 0 0 0)
(-1.37729e-15 0 0 2.01169 2.46125e-16 0 0 0 0)
(0 0 0 2.00557 2.21033e-16 0 0 0 0)
(0 0 0 1.99947 2.39784e-16 0 0 0 0)
(0 0 0 1.99337 5.63262e-16 0 0 0 0)
(-1.3512e-15 0 0 1.98728 8.51189e-16 0 0 0 0)
(0 0 0 1.9812 6.7888e-16 0 0 0 0)