/*--------------------------------*- C++ -*----------------------------------*\
| =========                 |                                                 |
| \\      /  F ield         | OpenFOAM: The Open Source CFD Toolbox           |
|  \\    /   O peration     | Version:  v1806                                 |
|   \\  /    A nd           | Web:      www.OpenFOAM.com                      |
|    \\/     M anipulation  |                                                 |
\*---------------------------------------------------------------------------*/
FoamFile
{
    version     2.0;
    format      ascii;
    class       volScalarField;
    location    "10000";
    object      k;
}
// * * * * * * * * * * * * * * * * * * * * * * * * * * * * * * * * * * * * * //

dimensions      [0 2 -2 0 0 0 0];


internalField   nonuniform List<scalar> 
1025
(
1.66966e-06
2.4199e-05
7.34528e-05
0.000149949
0.000254192
0.000386669
0.000547833
0.000738083
0.000957742
0.00120702
0.00148595
0.00179433
0.0021316
0.00249674
0.0028881
0.00330325
0.00373892
0.00419092
0.00465432
0.00512371
0.00559361
0.00605883
0.00651488
0.00695807
0.00738567
0.00779582
0.00818744
0.00856014
0.00891403
0.00924958
0.00956761
0.00986901
0.0101549
0.0104263
0.0106843
0.0109299
0.0111642
0.0113881
0.0116025
0.0118081
0.0120057
0.0121959
0.0123794
0.0125567
0.0127283
0.0128946
0.0130561
0.0132131
0.0133659
0.0135149
0.0136603
0.0138024
0.0139414
0.0140776
0.014211
0.014342
0.0144706
0.014597
0.0147214
0.0148438
0.0149644
0.0150834
0.0152007
0.0153166
0.015431
0.0155441
0.015656
0.0157666
0.0158762
0.0159847
0.0160923
0.0161989
0.0163046
0.0164095
0.0165136
0.016617
0.0167197
0.0168217
0.0169231
0.017024
0.0171242
0.017224
0.0173233
0.0174221
0.0175205
0.0176185
0.0177161
0.0178133
0.0179103
0.0180069
0.0181032
0.0181993
0.0182951
0.0183907
0.0184861
0.0185812
0.0186762
0.0187711
0.0188658
0.0189603
0.0190547
0.0191491
0.0192433
0.0193374
0.0194315
0.0195255
0.0196195
0.0197134
0.0198074
0.0199013
0.0199951
0.020089
0.0201829
0.0202769
0.0203708
0.0204648
0.0205589
0.0206529
0.0207471
0.0208413
0.0209356
0.02103
0.0211244
0.021219
0.0213137
0.0214084
0.0215033
0.0215983
0.0216935
0.0217887
0.0218841
0.0219796
0.0220753
0.0221711
0.0222671
0.0223632
0.0224595
0.022556
0.0226526
0.0227494
0.0228464
0.0229436
0.023041
0.0231385
0.0232363
0.0233342
0.0234324
0.0235307
0.0236293
0.023728
0.023827
0.0239262
0.0240257
0.0241253
0.0242252
0.0243253
0.0244256
0.0245262
0.024627
0.024728
0.0248293
0.0249308
0.0250326
0.0251346
0.0252368
0.0253394
0.0254421
0.0255452
0.0256484
0.025752
0.0258557
0.0259599
0.0260642
0.0261688
0.0262737
0.0263788
0.0264842
0.0265899
0.0266959
0.0268022
0.0269087
0.0270154
0.0271225
0.0272299
0.0273375
0.0274454
0.0275537
0.0276622
0.0277709
0.02788
0.0279894
0.028099
0.028209
0.0283192
0.0284298
0.0285406
0.0286518
0.0287632
0.0288749
0.028987
0.0290993
0.0292119
0.0293248
0.0294381
0.0295516
0.0296655
0.0297796
0.0298941
0.0300089
0.030124
0.0302393
0.030355
0.030471
0.0305873
0.0307039
0.0308209
0.030938
0.0310556
0.0311734
0.0312916
0.0314101
0.0315289
0.031648
0.0317674
0.0318871
0.0320072
0.0321276
0.0322483
0.0323693
0.0324906
0.0326122
0.0327341
0.0328564
0.032979
0.0331019
0.0332251
0.0333486
0.0334724
0.0335966
0.0337211
0.0338459
0.033971
0.0340964
0.0342222
0.0343483
0.0344746
0.0346013
0.0347284
0.0348557
0.0349833
0.0351113
0.0352396
0.0353682
0.0354971
0.0356264
0.035756
0.0358858
0.036016
0.0361465
0.0362773
0.0364084
0.0365399
0.0366717
0.0368038
0.0369362
0.0370689
0.0372019
0.0373353
0.0374689
0.0376029
0.0377372
0.0378718
0.0380067
0.0381419
0.0382774
0.0384132
0.0385494
0.0386858
0.0388227
0.0389597
0.0390971
0.0392349
0.0393729
0.0395112
0.0396498
0.0397888
0.039928
0.0400676
0.0402074
0.0403476
0.0404881
0.0406288
0.0407699
0.0409113
0.041053
0.0411949
0.0413372
0.0414798
0.0416227
0.0417659
0.0419094
0.0420532
0.0421972
0.0423416
0.0424863
0.0426312
0.0427765
0.042922
0.0430679
0.043214
0.0433604
0.0435071
0.0436542
0.0438014
0.043949
0.0440969
0.044245
0.0443935
0.0445422
0.0446912
0.0448405
0.0449901
0.04514
0.0452901
0.0454405
0.0455912
0.0457421
0.0458934
0.0460449
0.0461967
0.0463488
0.0465011
0.0466537
0.0468066
0.0469597
0.0471131
0.0472668
0.0474207
0.047575
0.0477294
0.0478842
0.0480392
0.0481944
0.0483499
0.0485057
0.0486617
0.048818
0.0489745
0.0491313
0.0492883
0.0494456
0.0496032
0.049761
0.049919
0.0500773
0.0502358
0.0503946
0.0505536
0.0507128
0.0508723
0.051032
0.051192
0.0513522
0.0515126
0.0516732
0.0518341
0.0519952
0.0521565
0.0523181
0.0524799
0.0526419
0.0528041
0.0529666
0.0531293
0.0532921
0.0534552
0.0536185
0.053782
0.0539457
0.0541097
0.0542738
0.0544381
0.0546027
0.0547674
0.0549324
0.0550975
0.0552629
0.0554284
0.0555941
0.05576
0.0559261
0.0560924
0.0562589
0.0564255
0.0565924
0.0567594
0.0569266
0.0570939
0.0572615
0.0574292
0.0575971
0.0577651
0.0579333
0.0581017
0.0582703
0.0584389
0.0586078
0.0587768
0.0589459
0.0591153
0.0592847
0.0594543
0.059624
0.0597939
0.059964
0.0601342
0.0603045
0.0604749
0.0606454
0.0608161
0.060987
0.0611579
0.061329
0.0615002
0.0616715
0.0618429
0.0620144
0.062186
0.0623578
0.0625297
0.0627016
0.0628736
0.0630458
0.063218
0.0633904
0.0635628
0.0637353
0.0639079
0.0640806
0.0642533
0.0644261
0.0645991
0.064772
0.0649451
0.0651182
0.0652913
0.0654646
0.0656378
0.0658112
0.0659846
0.066158
0.0663315
0.066505
0.0666786
0.0668522
0.0670258
0.0671995
0.0673731
0.0675469
0.0677206
0.0678944
0.0680681
0.0682419
0.0684157
0.0685895
0.0687633
0.0689371
0.0691109
0.0692847
0.0694584
0.0696322
0.0698059
0.0699797
0.0701534
0.0703271
0.0705007
0.0706743
0.0708479
0.0710214
0.0711949
0.0713683
0.0715417
0.071715
0.0718883
0.0720615
0.0722347
0.0724078
0.0725808
0.0727537
0.0729266
0.0730993
0.073272
0.0734446
0.0736171
0.0737895
0.0739618
0.074134
0.074306
0.074478
0.0746498
0.0748216
0.0749931
0.0751646
0.075336
0.0755071
0.0756782
0.0758491
0.0760199
0.0761905
0.0763609
0.0765312
0.0767013
0.0768713
0.0770411
0.0772107
0.0773802
0.0775495
0.0777185
0.0778874
0.0780561
0.0782245
0.0783928
0.0785608
0.0787286
0.0788962
0.0790636
0.0792307
0.0793976
0.0795643
0.0797307
0.0798968
0.0800627
0.0802284
0.0803937
0.0805589
0.0807237
0.0808882
0.0810525
0.0812165
0.0813802
0.0815436
0.0817067
0.0818694
0.0820319
0.0821941
0.0823559
0.0825174
0.0826786
0.0828394
0.0829999
0.08316
0.0833198
0.0834792
0.0836383
0.083797
0.0839554
0.0841132
0.0842707
0.084428
0.0845849
0.0847412
0.0848971
0.0850528
0.085208
0.0853628
0.0855172
0.0856709
0.0858244
0.0859775
0.08613
0.0862821
0.0864337
0.086585
0.0867358
0.0868861
0.0870359
0.0871851
0.0873339
0.0874823
0.0876301
0.0877774
0.0879242
0.0880705
0.0882163
0.0883615
0.0885061
0.0886503
0.088794
0.0889371
0.0890796
0.0892215
0.0893629
0.0895038
0.089644
0.0897836
0.0899227
0.0900612
0.0901991
0.0903362
0.0904728
0.0906088
0.0907442
0.090879
0.0910131
0.0911465
0.0912794
0.0914116
0.0915431
0.091674
0.0918041
0.0919336
0.0920624
0.0921905
0.0923179
0.0924446
0.0925705
0.0926959
0.0928205
0.0929443
0.0930674
0.0931898
0.0933114
0.0934322
0.0935523
0.0936717
0.0937903
0.0939081
0.0940251
0.0941413
0.0942567
0.0943713
0.0944852
0.0945981
0.0947103
0.0948217
0.0949322
0.0950419
0.0951508
0.0952587
0.0953659
0.0954722
0.0955776
0.0956821
0.0957857
0.0958884
0.0959903
0.0960912
0.0961913
0.0962905
0.0963887
0.0964859
0.0965823
0.0966777
0.0967722
0.0968657
0.0969583
0.0970499
0.0971405
0.0972302
0.0973188
0.0974065
0.0974932
0.0975789
0.0976636
0.0977472
0.0978299
0.0979115
0.0979921
0.0980716
0.0981501
0.0982276
0.098304
0.0983793
0.0984535
0.0985267
0.0985988
0.0986698
0.0987398
0.0988086
0.0988763
0.0989428
0.0990083
0.0990727
0.0991359
0.099198
0.0992589
0.0993187
0.0993773
0.0994348
0.0994911
0.0995462
0.0996001
0.0996529
0.0997044
0.0997548
0.099804
0.0998519
0.0998986
0.0999441
0.0999884
0.100031
0.100073
0.100114
0.100153
0.100191
0.100228
0.100263
0.100298
0.100331
0.100362
0.100393
0.100422
0.10045
0.100476
0.100501
0.100525
0.100547
0.100569
0.100588
0.100607
0.100624
0.10064
0.100654
0.100667
0.100679
0.100689
0.100698
0.100706
0.100712
0.100717
0.10072
0.100722
0.100723
0.100722
0.100719
0.100716
0.10071
0.100704
0.100696
0.100686
0.100675
0.100663
0.100649
0.100634
0.100617
0.100599
0.100579
0.100558
0.100535
0.100511
0.100485
0.100458
0.100429
0.100399
0.100367
0.100334
0.100299
0.100263
0.100225
0.100185
0.100145
0.100102
0.100058
0.100012
0.0999653
0.0999166
0.0998664
0.0998145
0.0997611
0.0997062
0.0996496
0.0995915
0.0995318
0.0994705
0.0994077
0.0993432
0.0992772
0.0992095
0.0991402
0.0990694
0.0989969
0.0989228
0.0988471
0.0987698
0.0986909
0.0986104
0.0985282
0.0984444
0.0983591
0.098272
0.0981834
0.0980931
0.0980012
0.0979076
0.0978124
0.0977156
0.0976171
0.097517
0.0974152
0.0973119
0.0972068
0.0971002
0.0969918
0.0968819
0.0967703
0.096657
0.0965421
0.0964256
0.0963074
0.0961875
0.0960661
0.0959429
0.0958181
0.0956917
0.0955636
0.0954339
0.0953025
0.0951695
0.0950348
0.0948986
0.0947606
0.0946211
0.0944799
0.094337
0.0941925
0.0940465
0.0938987
0.0937493
0.0935983
0.0934457
0.0932915
0.0931357
0.0929782
0.0928191
0.0926584
0.0924962
0.0923323
0.0921668
0.0919998
0.0918311
0.0916609
0.0914891
0.0913157
0.0911407
0.0909642
0.0907862
0.0906065
0.0904254
0.0902426
0.0900584
0.0898727
0.0896854
0.0894966
0.0893062
0.0891144
0.0889211
0.0887263
0.0885301
0.0883324
0.0881332
0.0879326
0.0877305
0.087527
0.0873221
0.0871157
0.086908
0.0866989
0.0864883
0.0862765
0.0860633
0.0858487
0.0856328
0.0854155
0.085197
0.0849771
0.084756
0.0845336
0.08431
0.0840851
0.0838589
0.0836316
0.0834031
0.0831734
0.0829425
0.0827105
0.0824773
0.082243
0.0820077
0.0817712
0.0815337
0.0812951
0.0810555
0.080815
0.0805734
0.0803309
0.0800873
0.079843
0.0795977
0.0793515
0.0791044
0.0788565
0.0786078
0.0783584
0.0781082
0.0778572
0.0776055
0.0773532
0.0771001
0.0768465
0.0765922
0.0763374
0.076082
0.0758261
0.0755697
0.0753128
0.0750555
0.0747979
0.0745398
0.0742814
0.0740227
0.0737638
0.0735046
0.0732452
0.0729855
0.0727258
0.072466
0.0722062
0.0719462
0.0716864
0.0714266
0.0711669
0.0709073
0.0706479
0.0703886
0.0701297
0.0698711
0.0696127
0.0693548
0.0690973
0.0688403
0.0685838
0.0683279
0.0680726
0.0678179
0.0675639
0.0673107
0.0670582
0.0668066
0.0665559
0.0663062
0.0660575
0.0658098
0.0655632
0.0653177
0.0650735
0.0648305
0.0645888
0.0643485
0.0641096
0.0638721
0.0636363
0.0634019
0.0631692
0.0629383
0.062709
0.0624816
0.0622561
0.0620325
0.0618108
0.0615913
0.0613738
0.0611585
0.0609454
0.0607346
0.0605262
0.0603201
0.0601166
0.0599155
0.0597171
0.0595213
0.0593283
0.059138
0.0589505
0.058766
0.0585844
0.0584059
0.0582305
0.0580583
0.0578893
0.0577235
0.0575612
0.0574023
0.0572468
0.057095
0.0569467
0.0568022
0.0566614
0.0565245
0.0563914
0.0562623
0.0561372
0.0560163
0.0558995
0.055787
0.0556788
0.0555749
0.0554756
0.0553807
0.0552905
0.0552049
0.0551241
0.0550481
0.054977
0.0549108
0.0548498
0.0547938
0.0547431
0.0546976
0.0546576
0.0546229
0.0545938
0.0545704
0.0545526
0.0545406
0.0545345
)
;

boundaryField
{
    INLET
    {
        type            cyclic;
    }
    OUTLET
    {
        type            cyclic;
    }
    CENTER
    {
        type            symmetryPlane;
    }
    WALL
    {
        type            fixedValue;
        value           uniform 1e-10;
    }
    frontAndBackPlanes
    {
        type            empty;
    }
}


// ************************************************************************* //
