/*--------------------------------*- C++ -*----------------------------------*\
| =========                 |                                                 |
| \\      /  F ield         | OpenFOAM: The Open Source CFD Toolbox           |
|  \\    /   O peration     | Version:  v1806                                 |
|   \\  /    A nd           | Web:      www.OpenFOAM.com                      |
|    \\/     M anipulation  |                                                 |
\*---------------------------------------------------------------------------*/
FoamFile
{
    version     2.0;
    format      ascii;
    class       volScalarField;
    location    0;
    object      Kj_DD_exp;
}
// * * * * * * * * * * * * * * * * * * * * * * * * * * * * * * * * * * * * * //

dimensions      [0 0 0 0 0 0 0];


internalField   nonuniform List<scalar>
1025
(
0.022321143
0.067038886
0.11193742
0.15701705
0.20227879
0.24772328
0.29335154
0.33916153
0.38515658
0.43133695
0.47770404
0.52426272
0.57101292
0.61795177
0.66508029
0.71239871
0.75990766
0.80760893
0.85550275
0.90358973
0.95187048
1.0003537
1.0490412
1.0979253
1.1469973
1.1962579
1.2457154
1.2953729
1.3452301
1.3952868
1.4455478
1.4959948
1.5466459
1.5975063
1.6485701
1.6998371
1.7513067
1.8029846
1.8548757
1.9069743
1.9592799
2.011798
2.0645281
2.1174502
2.1705637
2.2238941
2.2774403
2.3311968
2.385169
2.4393616
2.4937747
2.5484024
2.6032498
2.6583164
2.713602
2.7691175
2.8248569
2.8808085
2.9369832
2.9933953
3.0500262
3.1068941
3.1639958
3.221308
3.2788423
3.3366014
3.3946057
3.4528589
3.5113555
3.5700731
3.6290108
3.6881991
3.747622
3.8072699
3.8671516
3.9272679
3.9876111
4.0482197
4.1090806
4.1701844
4.2315259
4.2931103
4.3549467
4.4170496
4.4793842
4.5419751
4.6048223
4.6679148
4.7312902
4.7949154
4.8588126
4.9229874
4.9874453
5.0521685
5.117169
5.1824336
5.2479815
5.313762
5.3798172
5.446148
5.5127677
5.5796613
5.6468133
5.7142527
5.7819419
5.8499384
5.9181924
5.9867122
6.0555299
6.1246555
6.1940448
6.26374
6.3337302
6.4040125
6.4745895
6.5454067
6.6165062
6.6878698
6.7594842
6.8314207
6.903606
6.9760629
7.0488095
7.1218066
7.1950976
7.2687219
7.3426439
7.4169098
7.4914892
7.5664079
7.6416504
7.7171946
7.7930897
7.869241
7.9456586
8.0223235
8.0993042
8.1766293
8.254275
8.3322167
8.4104411
8.4890153
8.5678939
8.647032
8.726525
8.8062802
8.8863633
8.9667793
9.0475054
9.1285497
9.20994
9.2916578
9.3737611
9.4562059
9.5389918
9.6220428
9.7053623
9.7890111
9.8729462
9.9571823
10.04167
10.126548
10.211829
10.29739
10.38336
10.469623
10.556172
10.643136
10.73043
10.818119
10.906224
10.994786
11.083675
11.172916
11.262503
11.352525
11.442952
11.533642
11.624726
11.716257
11.808214
11.900448
11.99314
12.086137
12.179539
12.273332
12.367469
12.461967
12.55671
12.651793
12.747218
12.843002
12.939242
13.035892
13.13295
13.230265
13.328039
13.426064
13.524548
13.623409
13.722545
13.822167
13.922299
14.022832
14.123881
14.225306
14.327157
14.429383
14.532033
14.635107
14.738584
14.842482
14.946752
15.051443
15.156603
15.262101
15.367934
15.474201
15.580852
15.687918
15.795448
15.903342
16.011649
16.120383
16.229528
16.339132
16.449146
16.559569
16.670449
16.781786
16.893528
17.005676
17.118328
17.231472
17.345058
17.459047
17.573487
17.688467
17.803897
17.919774
18.036099
18.152871
18.270088
18.387755
18.505866
18.62442
18.743464
18.862996
18.983017
19.103524
19.224518
19.345999
19.467917
19.590319
19.713253
19.83667
19.96052
20.084851
20.209662
20.334951
20.460718
20.587011
20.713827
20.841118
20.968883
21.09712
21.225878
21.355155
21.484901
21.615165
21.745944
21.877237
22.008984
22.141135
22.273797
22.407016
22.540744
22.67498
22.80977
22.945066
23.080867
23.217218
23.35412
23.491522
23.629425
23.767875
23.906869
24.046408
24.18649
24.327114
24.468279
24.609983
24.752226
24.895053
25.038416
25.182314
25.326793
25.471805
25.617395
25.763561
25.910257
26.057528
26.205289
26.353538
26.502358
26.651746
26.801702
26.952225
27.103358
27.255056
27.407317
27.560185
27.713659
27.8676
28.02205
28.177102
28.332803
28.489247
28.646386
28.804222
28.962654
29.121681
29.28145
29.441812
29.602766
29.764356
29.926687
30.089605
30.253264
30.4176
30.582411
30.747849
30.91396
31.080651
31.247966
31.415948
31.584597
31.753865
31.923797
32.094511
32.265841
32.437706
32.61023
32.783409
32.957242
33.131856
33.307167
33.482997
33.659475
33.836645
34.014504
34.192916
34.371968
34.551705
34.732125
34.913084
35.094767
35.277127
35.460162
35.643871
35.828297
36.013438
36.199248
36.385769
36.573
36.760939
36.949584
37.138935
37.329193
37.520152
37.711813
37.904381
38.09769
38.291739
38.486482
38.68196
38.878173
39.075118
39.272837
39.471286
39.670642
39.870767
40.071659
40.273317
40.475884
40.679213
40.883346
41.088432
41.294275
41.500874
41.708227
41.916375
42.125317
42.335254
42.545982
42.757498
42.9698
43.182886
43.396754
43.611662
43.827392
44.043898
44.261223
44.479136
44.697634
44.916941
45.137055
45.357973
45.579737
45.802344
46.02575
46.249994
46.475074
46.700988
46.927776
47.155394
47.383839
47.612851
47.842466
48.072942
48.304275
48.536464
48.769506
49.003441
49.238183
49.473812
49.710609
49.948533
50.18738
50.426819
50.666801
50.907658
51.149724
51.392701
51.636587
51.881337
52.126682
52.372928
52.620385
52.868779
53.118066
53.368286
53.619394
53.871428
54.124428
54.378308
54.633107
54.889206
55.146219
55.404185
55.663102
55.922966
56.183415
56.444442
56.70608
56.968649
57.232148
57.496613
57.76208
58.028509
58.295895
58.564236
58.833529
59.104249
59.375956
59.648608
59.922242
60.196855
60.472484
60.749126
61.026739
61.305357
61.58502
61.865681
62.1469
62.429111
62.712351
62.996616
63.281904
63.568211
63.856
64.144843
64.434697
64.725598
65.017585
65.311098
65.605614
65.901203
66.197867
66.495598
66.794396
67.094216
67.395133
67.697144
67.999676
68.302759
68.606922
68.912158
69.217916
69.524779
69.832743
70.142329
70.453619
70.766002
71.079476
71.394076
71.710389
72.02782
72.346332
72.665994
72.986803
73.308718
73.631773
73.955962
74.281285
74.607771
74.935421
75.26419
75.594114
75.92589
76.258814
76.592884
76.928853
77.26669
77.606361
77.947242
78.289334
78.632592
78.977051
79.322743
79.669628
80.017698
80.366241
80.715997
81.066999
81.419203
81.772606
82.12728
82.483178
82.839501
83.196236
83.554213
83.913428
84.273878
84.635591
84.997688
85.361002
85.725513
86.09092
86.457389
86.824897
87.193697
87.563468
87.93438
88.306425
88.679504
89.053899
89.429783
89.807414
90.185955
90.565809
90.946654
91.328933
91.712579
92.097789
92.483856
92.870824
93.259392
93.649763
94.041227
94.434347
94.829367
95.22575
95.622923
96.021635
96.421667
96.823124
97.225795
97.630346
98.0362
98.442778
98.850995
99.261081
99.672335
100.08427
100.49759
100.91192
101.32773
101.74539
102.16368
102.58347
103.00519
103.42772
103.85072
104.27463
104.70049
105.12765
105.55649
105.98627
106.41758
106.8505
107.28536
107.72189
108.16022
108.59979
109.04077
109.48283
109.92669
110.37145
110.8177
111.26622
111.71652
112.168
112.62143
113.0768
113.53347
113.99227
114.45221
114.91407
115.37788
115.84394
116.31144
116.78071
117.25157
117.7235
118.19702
118.67159
119.14754
119.62542
120.10501
120.58647
121.07017
121.55544
122.04313
122.53248
123.02371
123.51569
124.0099
124.50503
125.00273
125.50267
126.00387
126.50692
127.01222
127.52028
128.02969
128.53952
129.05169
129.56642
130.08266
130.59998
131.11921
131.63928
132.16168
132.68545
133.21176
133.73928
134.26801
134.79928
135.33164
135.86678
136.40361
136.94182
137.48044
138.02088
138.5624
139.10476
139.64898
140.19523
140.74375
141.29461
141.84774
142.40315
142.96141
143.52173
144.08484
144.64922
145.21537
145.78325
146.3515
146.92038
147.49129
148.06448
148.6399
149.21702
149.79583
150.37718
150.96019
151.54544
152.13323
152.72146
153.31221
153.90366
154.49641
155.09103
155.68752
156.28556
156.88484
157.48595
158.08887
158.69329
159.29922
159.90721
160.51697
161.12819
161.74115
162.35583
162.97188
163.58928
164.20836
164.8291
165.45151
166.07555
166.70123
167.32881
167.95827
168.58932
169.22194
169.85612
170.49214
171.13035
171.77037
172.41189
173.0549
173.69995
174.34674
174.99498
175.64493
176.29727
176.95172
177.60755
178.26504
178.92444
179.5859
180.24925
180.91419
181.58071
182.24906
182.91896
183.59067
184.26343
184.93751
185.61333
186.29088
186.97015
187.65085
188.33322
189.01678
189.70225
190.38983
191.07876
191.76955
192.46217
193.15584
193.85106
194.54753
195.24551
195.94549
196.64798
197.35219
198.05728
198.76324
199.47084
200.18033
200.89143
201.60411
202.31836
203.03416
203.75116
204.46966
205.18965
205.91111
206.63485
207.36027
208.0865
208.81374
209.54259
210.27365
211.00627
211.74019
212.47627
213.2141
213.95276
214.69223
215.43338
216.17659
216.92119
217.66741
218.41496
219.16407
219.91472
220.66665
221.42076
222.17728
222.93596
223.69583
224.4571
225.21998
225.98494
226.75198
227.52055
228.2904
229.06175
229.83455
230.60856
231.38398
232.16055
232.93847
233.71795
234.49792
235.27917
236.06166
236.84558
237.63069
238.41695
239.20457
239.99266
240.78204
241.57245
242.3641
243.15694
243.95074
244.74589
245.54237
246.33972
247.1381
247.93865
248.74132
249.54516
250.34994
251.15561
251.96257
252.77058
253.57939
254.39037
255.2023
256.01514
256.82786
257.64142
258.45722
259.27483
260.09318
260.91161
261.72986
262.54769
263.3663
264.18588
265.00617
265.82714
266.64876
267.47098
268.29416
269.11807
269.94246
270.76635
271.58969
272.41243
273.23567
274.05938
274.88351
275.70822
276.53347
277.35901
278.18501
279.0114
279.83816
280.66523
281.49258
282.31887
283.14406
283.96956
284.79514
285.62093
286.44689
287.27297
288.09912
288.92512
289.7511
290.57718
291.40331
292.22788
293.05222
293.87645
294.70053
295.52423
296.34784
297.16967
297.98949
298.80757
299.62532
300.44268
301.25793
302.07098
302.88348
303.69551
304.50687
305.31734
306.12717
306.93631
307.74292
308.5471
309.34876
310.14931
310.94884
311.74744
312.54489
313.34114
314.13627
314.93007
315.72262
316.51384
317.30369
318.09208
318.87896
319.66439
320.44817
321.23204
322.01609
322.79843
323.57714
324.35211
325.12513
325.89626
326.66353
327.42861
328.19144
328.9522
329.71068
330.46667
331.22035
331.97151
332.72007
333.4662
334.20968
334.95032
335.68814
336.42319
337.15525
337.88424
338.60804
339.3287
340.04601
340.75781
341.46629
342.17124
342.87045
343.56605
344.25782
344.94578
345.62982
346.30985
346.98575
347.65988
348.33213
348.99998
349.66103
350.31755
350.96951
351.61682
352.26161
352.90151
353.53404
354.15887
354.77845
355.39275
356.00155
356.60474
357.20236
357.79421
358.38006
358.95996
359.53633
360.10641
360.67023
361.22756
361.77828
362.32224
362.8593
363.38938
363.91228
364.42791
364.939
365.44535
365.94401
366.43201
366.91205
367.38391
367.84747
368.30264
368.74925
369.18705
369.61595
370.03576
370.44328
370.83835
371.22072
371.59322
371.95572
372.30806
372.65001
372.97823
373.29567
373.60214
373.89742
374.1813
374.45357
374.71403
374.96247
375.19865
375.42565
375.64325
375.84795
376.03949
376.21762
376.3821
376.53269
376.66912
376.79456
376.90532
377.00114
377.08171
377.14676
377.19601
377.22915
377.24587
)
;

boundaryField
{
INLET
{
    type            cyclic;
}
OUTLET
{
    type            cyclic;
}
WALL
{
    type            fixedValue;
    value           uniform 0;
}
CENTER
{
    type            symmetryPlane;
}
frontAndBackPlanes
{
    type            empty;
}
}


// ************************************************************************* //

