/*--------------------------------*- C++ -*----------------------------------*\
| =========                 |                                                 |
| \\      /  F ield         | OpenFOAM: The Open Source CFD Toolbox           |
|  \\    /   O peration     | Version:  v1806                                 |
|   \\  /    A nd           | Web:      www.OpenFOAM.com                      |
|    \\/     M anipulation  |                                                 |
\*---------------------------------------------------------------------------*/
FoamFile
{
    version     2.0;
    format      ascii;
    class       volScalarField;
    location    0;
    object      Kj_exp;
}
// * * * * * * * * * * * * * * * * * * * * * * * * * * * * * * * * * * * * * //

dimensions      [0 0 0 0 0 0 0];


internalField   nonuniform List<scalar>
1025
(
2120.6768
6369.1992
10634.898
14917.803
19218.009
23535.578
27870.607
32222.901
36592.777
40980.261
45385.483
49808.909
54250.529
58710.074
63187.638
67683.245
72196.953
76728.933
81279.207
85847.832
90434.867
95041.136
99666.82
104311.17
108973.39
113653.52
118352.35
123070.19
127807
132562.76
137337.94
142130.78
146943.01
151775.13
156626.58
161497.33
166387.33
171297.12
176227.17
181176.93
186146.36
191135.97
196145.72
201173.72
206219.91
211286.7
216373.99
221481.26
226609.02
231757.73
236927.39
242117.42
247328.34
252560.08
257812.63
263087.03
268382.68
273698.51
279035.53
284395.1
289775.47
295178.35
300603.44
306048.53
311514.72
317002.27
322513.12
328047.61
333605.23
339183.84
344783.37
350406.7
356052.33
361719.33
367408.54
373120.04
378853.1
384611.38
390393.61
396198.94
402026.84
407877.82
413752.75
419652.99
425575.25
431521.86
437492.81
443487.08
449508.21
455553.09
461623.81
467720.89
473844.88
479994.08
486169.61
492370.24
498597.79
504847.43
511123.17
517425.09
523754.46
530109.87
536489.81
542897.06
549328.05
555788.22
562272.87
568782.77
575320.96
581888.41
588480.93
595102.49
601752.09
608429.43
615134.78
621862.95
628617.94
635398.02
642201.92
649036.44
655894.59
662778.53
669690.01
676625.29
683588.49
690583.34
697606.49
704662.32
711747.91
718865.76
726014.36
733191.63
740402.24
747637.19
754897.43
762181.17
769494.92
776841.39
784218.32
791623.36
799055.27
806520.41
814014.47
821533.19
829085.62
836662.97
844271.47
851911.59
859581.18
867281
875013.69
882777.5
890577.93
898410.8
906276.09
914166.56
922082.54
930029.8
938004.27
946007.34
954034.26
962098.34
970200.69
978329.64
986497.42
994693.04
1002915.9
1011178.1
1019471.7
1027802.8
1036173.4
1044587.5
1053032.6
1061511.2
1070022.6
1078575.4
1087166.7
1095782.9
1104436.6
1113132.7
1121869.3
1130632.3
1139438.7
1148274
1157148
1166059
1175002.8
1183980.8
1192982
1202015.6
1211081.8
1220181.9
1229325.5
1238508
1247729.2
1256974.9
1266264.1
1275577.2
1284934
1294326.5
1303745.2
1313210
1322723.3
1332274.7
1341875.1
1351511.2
1361187.9
1370900.1
1380652.6
1390445.4
1400276.5
1410147.7
1420054.1
1430000.5
1439991.5
1450014.6
1460069.5
1470165.7
1480298.3
1490470.4
1500686.6
1510937.4
1521227.3
1531557.8
1541927.4
1552340.7
1562792.8
1573283.8
1583818.3
1594396.1
1605012.5
1615667.4
1626370.1
1637119.6
1647911.2
1658741
1669613.7
1680537.7
1691504.3
1702513.6
1713565.3
1724659.5
1735796
1746975.3
1758196.7
1769460.2
1780770.3
1792126.7
1803529.6
1814978.7
1826474
1838015.6
1849598.7
1861227.9
1872907.6
1884633.1
1896399.8
1908212.2
1920070.1
1931973.6
1943922.4
1955921.1
1967969.6
1980063.2
1992201.8
2004385.4
2016618.3
2028900.6
2041227.5
2053603.5
2066028.5
2078502.4
2091019.3
2103574.6
2116178.5
2128835.3
2141540.5
2154293.9
2167100
2179954.2
2192856.2
2205810.7
2218817.3
2231871.6
2244973.4
2258127.2
2271332.7
2284590
2297898.8
2311259.1
2324670.8
2338133.8
2351647.9
2365217.6
2378838.2
2392509.6
2406236.2
2420013.4
2433845.5
2447732.4
2461669.7
2475661.5
2489699.9
2503784.7
2517923.6
2532116.7
2546363.6
2560664.4
2575023.3
2589435.7
2603901.6
2618425.2
2633006.4
2647631.9
2662305.9
2677037
2691829.8
2706693.1
2721622.5
2736618.1
2751670.3
2766779.1
2781958.4
2797194
2812485.8
2827838.1
2843260.7
2858739.2
2874288.1
2889901.2
2905559.4
2921277.4
2937059.1
2952896
2968792.2
2984751.8
3000774.7
3016856.4
3033001.2
3049220.4
3065497.9
3081826.5
3098217.5
3114670.8
3131186.3
3147776
3164431.8
3181137
3197903.8
3214736.2
3231634.2
3248584.6
3265596
3282672.3
3299813.6
3317006.1
3334267.3
3351592.8
3368982.6
3386436.3
3403958.2
3421548
3439201.3
3456922.2
3474710.6
3492566.2
3510488.9
3528478.6
3546554.6
3564697.2
3582906.3
3601201.8
3619567.6
3638003.7
3656505.7
3675077.6
3693719.3
3712430.6
3731215.4
3750069.5
3769009.9
3788023.2
3807109.5
3826268.6
3845513.9
3864831.7
3884225.9
3903710.6
3923267.2
3942895.7
3962595.8
3982371.4
4002222.5
4022168.1
4042188.9
4062284.5
4082454.8
4102699.5
4123018.6
4143436.5
4163932.4
4184502.2
4205149.6
4225853
4246612
4267447.8
4288360.3
4309349.2
4330418.4
4351567.8
4372793
4394097.8
4415482.2
4436945.7
4458492.3
4480117.7
4501821.7
4523579.6
4545394.7
4567291.7
4589270.1
4611329.8
4633470.5
4655696.1
4677998.3
4700384.9
4722882.4
4745486.9
4768179.2
4790927.7
4813727.9
4836611.1
4859609.2
4882693.8
4905864.8
4929117.9
4952427.5
4975822.7
4999333
5022932.4
5046616.5
5070389.3
5094246.4
5118191.6
5142228.5
5166349
5190556.8
5214888.1
5239306.3
5263815
5288414.1
5313103.1
5337847.7
5362647.3
5387504.8
5412450.9
5437485.2
5462611.4
5487832.8
5513145.6
5538549.2
5564043.6
5589628.5
5615349
5641163.2
5667067.2
5693064.5
5719154.8
5745341.6
5771624.7
5798000
5824470.8
5851040.9
5877705.8
5904423.7
5931235.9
5958145.8
5985153.1
6012257.6
6039459
6066801.1
6094243.4
6121781.7
6149419.5
6177160.4
6205046.4
6233027.6
6261110.8
6289296.1
6317582.8
6345970.8
6374456
6403045.4
6431738.7
6460481.5
6489276.7
6518174.5
6547174.2
6576223.5
6605377.8
6634636.7
6664049.7
6693624.6
6723303.4
6753085.7
6782975.1
6813027.2
6843185.6
6873446.6
6903816.9
6934296.2
6964880.5
6995573.2
7026373.6
7057281.7
7088300.4
7119429.6
7150665.1
7182010.4
7213531.6
7245161.9
7276901
7308820.7
7340917.7
7373189
7405575.3
7438076.5
7470688.7
7503414.9
7536258.2
7569214.9
7602284.2
7635398.4
7668627.8
7701975.7
7735437.7
7769013.7
7802710.3
7836523.4
7870376.8
7904269.2
7938279.8
7972407.9
8006653.3
8041018.8
8075420.7
8109938.3
8144569.6
8179286.1
8214103.4
8249019.4
8284058.2
8319189.2
8354428.6
8389775.7
8425221
8460791.4
8496503.1
8532380.9
8568345.2
8604434.2
8640617.3
8676936.7
8713386
8749983.8
8786663.2
8823428
8860344.9
8897433
8934625.1
8971974.4
9009504.3
9047163.7
9084898.1
9122778.8
9160784.8
9198926.3
9237183
9275618.4
9314177.6
9352805.6
9391589.3
9430550.6
9469622.7
9508760.1
9548028.5
9587392.7
9626897.8
9666578.4
9706319.2
9746202.5
9786268.9
9826412.9
9866600.7
9906875.6
9947335.9
9987918.8
10028662
10069494
10110472
10151603
10192918
10234391
10276036
10317798
10359695
10401694
10443863
10486119
10528516
10571129
10613911
10656805
10699884
10743148
10786535
10830124
10873822
10917703
10961767
11006047
11050463
11095048
11139783
11184620
11229608
11274695
11319914
11365316
11410881
11456623
11502579
11548682
11595017
11641509
11688179
11734921
11781875
11828916
11876201
11923699
11971317
12019111
12067117
12115387
12163786
12212222
12260883
12309786
12358833
12407982
12457313
12506724
12556356
12606117
12656121
12706240
12756473
12806947
12857526
12908368
12959371
13010505
13061677
13113023
13164472
13216001
13267705
13319603
13371717
13424052
13476604
13529373
13582411
13635645
13689146
13742766
13796554
13850507
13904495
13958543
14012784
14067241
14121911
14176742
14231733
14286965
14342355
14397958
14453803
14509689
14565815
14622008
14678323
14734816
14791487
14848306
14905242
14962351
15019633
15077059
15134626
15192390
15250322
15308392
15366628
15425027
15483556
15542214
15601031
15660007
15719140
15778429
15837873
15897497
15957301
16017255
16077359
16137612
16198038
16258673
16319479
16380428
16441519
16502804
16564254
16625842
16687592
16749569
16811746
16874055
16936522
16999170
17062014
17125037
17188211
17251535
17315034
17378680
17442497
17506415
17570457
17634665
17699037
17763573
17828244
17893075
17958018
18023143
18088468
18153922
18219552
18285356
18351261
18417311
18483481
18549794
18616298
18683040
18749944
18816934
18884005
18951233
19018640
19086199
19153909
19221768
19289774
19357895
19426159
19494563
19563107
19631868
19700788
19769785
19838879
19908125
19977581
20047186
20116914
20186847
20256946
20327124
20397380
20467794
20538405
20609148
20680043
20751067
20822238
20893555
20964994
21036640
21108516
21180596
21252789
21325115
21397595
21470272
21543146
21616166
21689308
21762592
21836014
21909551
21983221
22057001
22130910
22204966
22279070
22353294
22427636
22502114
22576706
22651407
22726236
22801111
22876107
22951203
23026415
23101742
23177158
23252704
23328375
23404129
23479982
23556039
23632299
23708670
23785130
23861675
23938343
24015110
24091953
24169002
24246141
24323367
24400581
24477876
24555383
24633062
24710812
24788569
24866309
24944008
25021783
25099649
25177583
25255581
25333641
25411758
25489967
25568244
25646567
25724844
25803067
25881233
25959447
26037706
26116005
26194358
26272763
26351196
26429671
26508185
26586733
26665312
26743916
26822420
26900819
26979248
27057684
27136140
27214612
27293096
27371587
27450063
27528537
27607021
27685510
27763850
27842168
27920477
27998771
28077028
28155277
28233358
28311247
28388970
28466663
28544318
28621773
28699019
28776213
28853362
28930447
29007447
29084388
29161262
29237896
29314299
29390463
29466521
29542482
29618355
29694120
29769769
29845313
29920729
29996027
30071200
30146241
30221144
30295904
30370525
30444990
30519464
30593955
30668283
30742266
30815894
30889337
30962600
31035496
31108185
31180660
31252938
31324999
31396823
31468429
31539795
31610914
31681802
31752438
31822804
31892903
31962738
32032289
32101548
32170315
32238783
32306933
32374559
32441870
32508846
32575276
32641363
32707087
32772448
32837437
32902044
32966261
33030308
33094177
33157627
33220432
33282806
33344748
33406247
33467507
33528303
33588398
33647761
33706626
33764989
33822830
33880137
33936916
33993145
34048806
34103900
34158660
34212822
34266389
34319340
34371663
34423343
34474367
34524729
34574409
34623397
34671955
34720062
34767438
34813802
34859409
34904239
34948282
34991526
35033957
35075552
35116300
35156185
35194902
35232438
35268765
35304156
35338596
35372071
35404559
35435742
35465901
35495018
35523072
35550043
35575910
35600656
35624260
35646699
35668265
35688939
35708387
35726585
35743508
35759135
35773442
35786405
35798322
35808845
35817948
35825603
35831784
35836463
35839611
35841200
)
;

boundaryField
{
INLET
{
    type            cyclic;
}
OUTLET
{
    type            cyclic;
}
WALL
{
    type            fixedValue;
    value           uniform 0;
}
CENTER
{
    type            symmetryPlane;
}
frontAndBackPlanes
{
    type            empty;
}
}


// ************************************************************************* //

