/*--------------------------------*- C++ -*----------------------------------*\
| =========                 |                                                 |
| \\      /  F ield         | OpenFOAM: The Open Source CFD Toolbox           |
|  \\    /   O peration     | Version:  v1806                                 |
|   \\  /    A nd           | Web:      www.OpenFOAM.com                      |
|    \\/     M anipulation  |                                                 |
\*---------------------------------------------------------------------------*/
FoamFile
{
    version     2.0;
    format      ascii;
    class       volScalarField;
    location    0;
    object      Kj_Full_imp1;
}
// * * * * * * * * * * * * * * * * * * * * * * * * * * * * * * * * * * * * * //

dimensions      [0 0 0 0 0 0 0];


internalField   nonuniform List<scalar>
1025
(
0.024547635
0.073731542
0.12311997
0.1727133
0.22251229
0.2725181
0.32273147
0.3731502
0.42377461
0.47460839
0.52565229
0.57690744
0.6283729
0.68005063
0.73194092
0.78403758
0.83634035
0.88885767
0.94158936
0.9945365
1.0476975
1.1010726
1.1546725
1.2084986
1.2625419
1.3168026
1.3712766
1.4259657
1.4808696
1.5359747
1.5913002
1.6468388
1.7025939
1.7585675
1.8147523
1.871164
1.9278026
1.9846566
2.0417138
2.0989828
2.1564767
2.214179
2.2720694
2.3301672
2.388472
2.4469889
2.5056936
2.5645728
2.6236487
2.6829246
2.7424004
2.8020691
2.8619355
2.9219988
2.9822577
3.0427171
3.1033601
3.1641755
3.2251385
3.2862851
3.3475816
3.4090497
3.4706808
3.5324771
3.5944518
3.656575
3.7188647
3.7813065
3.8439247
3.9067141
3.9696694
4.0327731
4.0960265
4.1594031
4.2228799
4.286462
4.3501902
4.4140445
4.4780145
4.5421079
4.606323
4.6706471
4.7350576
4.7995326
4.8640859
4.9287158
4.9934629
5.0583159
5.1232513
5.1883
5.2534497
5.3186978
5.3839797
5.449245
5.5145622
5.5799268
5.6453307
5.7108021
5.7763317
5.8419063
5.9075236
5.9731595
6.0387591
6.1042574
6.1697268
6.2352086
6.3006951
6.366219
6.4317532
6.4973068
6.5629156
6.6284621
6.6938292
6.7590254
6.8241796
6.8893503
6.9545142
7.0196455
7.0847315
7.1498253
7.2149332
7.2799627
7.3447765
7.4093088
7.4736934
7.5380782
7.6024493
7.6668092
7.7311579
7.7954979
7.8597984
7.9240328
7.987945
8.0513776
8.1145625
8.1777152
8.2407883
8.3037752
8.3666932
8.4295499
8.4923633
8.5551445
8.6175839
8.6793179
8.7406588
8.8019401
8.8631397
8.9242427
8.9853183
9.0462825
9.1071526
9.1679488
9.2284567
9.2882364
9.3473381
9.4061522
9.4648744
9.5235068
9.5820974
9.6406641
9.6991195
9.757478
9.8156303
9.873081
9.9296327
9.9856893
10.041685
10.097624
10.153512
10.209227
10.264882
10.320625
10.376264
10.431209
10.485012
10.538265
10.591563
10.644809
10.698031
10.751192
10.804294
10.857337
10.910351
10.962788
11.013984
11.064451
11.114923
11.165446
11.215915
11.266357
11.316796
11.367177
11.41753
11.467353
11.515966
11.563713
11.611274
11.658815
11.706332
11.753849
11.801415
11.848957
11.896601
11.943847
11.989957
12.035135
12.080106
12.125062
12.170021
12.214982
12.259928
12.304874
12.349697
12.393992
12.43705
12.479193
12.521233
12.563297
12.605366
12.647447
12.689556
12.731646
12.773738
12.815316
12.855541
12.894984
12.934352
12.973731
13.01323
13.052758
13.092296
13.131839
13.171339
13.210062
13.247456
13.284149
13.320869
13.35764
13.394531
13.431447
13.468392
13.505455
13.542216
13.577992
13.612738
13.647149
13.681524
13.71593
13.750376
13.78476
13.8191
13.853487
13.88727
13.919803
13.951699
13.9836
14.015532
14.047503
14.079516
14.111657
14.143924
14.175912
14.206978
14.237152
14.267068
14.297031
14.327126
14.35735
14.387612
14.417929
14.44816
14.477688
14.506202
14.5343
14.562377
14.590516
14.618697
14.646926
14.675219
14.7036
14.731491
14.758342
14.78473
14.81117
14.837653
14.864188
14.890782
14.917434
14.94405
14.970092
14.995077
15.019609
15.044191
15.068839
15.09354
15.118286
15.143091
15.167897
15.192205
15.215641
15.238703
15.261823
15.284929
15.308087
15.331366
15.35477
15.378078
15.400826
15.422878
15.444612
15.466399
15.488239
15.510134
15.532083
15.554089
15.575871
15.597056
15.617801
15.638462
15.659117
15.679824
15.700646
15.721522
15.742402
15.762889
15.78264
15.802111
15.821631
15.841202
15.860832
15.880509
15.900235
15.919763
15.93878
15.957386
15.97594
15.994608
16.013328
16.032103
16.050937
16.069676
16.087983
16.105817
16.123511
16.141256
16.159
16.176743
16.194474
16.212175
16.229543
16.246373
16.263031
16.279734
16.296543
16.313404
16.330316
16.347223
16.363833
16.379991
16.39598
16.41202
16.428106
16.444235
16.46036
16.476464
16.492281
16.507758
16.5231
16.53849
16.553925
16.56941
16.584947
16.600419
16.615587
16.630436
16.645152
16.659864
16.67457
16.689273
16.704021
16.718649
16.732945
16.74702
16.761134
16.77529
16.789442
16.803644
16.817855
16.831926
16.845679
16.859312
16.872984
16.886701
16.900466
16.914274
16.927993
16.941441
16.954697
16.967942
16.981228
16.994608
17.008035
17.021449
17.034668
17.047646
17.060559
17.07347
17.086372
17.099266
17.112192
17.124993
17.137533
17.149967
17.162441
17.174956
17.187514
17.200118
17.212625
17.224897
17.237053
17.249236
17.26146
17.273723
17.286029
17.298304
17.31037
17.322322
17.33429
17.346306
17.358363
17.370454
17.38247
17.394283
17.405999
17.417748
17.429538
17.441368
17.45323
17.465004
17.47659
17.488105
17.499659
17.511247
17.522882
17.534476
17.54596
17.557301
17.5686
17.579931
17.591307
17.602729
17.614121
17.625379
17.636534
17.647687
17.658922
17.670245
17.681604
17.692947
17.704132
17.715263
17.726431
17.737588
17.748793
17.760029
17.771147
17.782172
17.793194
17.804208
17.815263
17.826387
17.837444
17.848378
17.859274
17.870208
17.881182
17.892194
17.903117
17.913872
17.924526
17.935166
17.945842
17.956549
17.967242
17.977843
17.988371
17.998904
18.009478
18.020087
18.03069
18.041211
18.051658
18.062107
18.072588
18.083108
18.093635
18.104084
18.114451
18.124816
18.135268
18.145761
18.156255
18.166672
18.177012
18.187357
18.197743
18.208208
18.218668
18.229053
18.239378
18.249714
18.260133
18.270632
18.281117
18.291519
18.30187
18.312245
18.322659
18.333105
18.343525
18.35385
18.36414
18.374418
18.384736
18.395073
18.405362
18.415576
18.425778
18.43602
18.446303
18.45653
18.466682
18.476786
18.486913
18.497076
18.507261
18.517362
18.527344
18.537315
18.547321
18.557357
18.567388
18.577356
18.587331
18.597324
18.607356
18.617406
18.627369
18.637274
18.647221
18.657251
18.667363
18.677513
18.687588
18.697637
18.707673
18.717692
18.727659
18.737523
18.747348
18.757183
18.767056
18.776896
18.786689
18.79644
18.806203
18.81604
18.825947
18.835877
18.84575
18.855621
18.865533
18.875472
18.885376
18.895227
18.905076
18.914957
18.924866
18.934747
18.944626
18.954557
18.964524
18.974512
18.984468
18.994373
19.00423
19.014071
19.023878
19.0336
19.043272
19.052942
19.062659
19.072389
19.082076
19.091781
19.101499
19.111255
19.121015
19.130723
19.140348
19.150002
19.159695
19.169374
19.178995
19.188604
19.198202
19.207823
19.217416
19.226907
19.236398
19.245932
19.255469
19.264962
19.274434
19.283925
19.293448
19.302965
19.312424
19.32188
19.331376
19.340884
19.35035
19.359726
19.369127
19.378563
19.387986
19.397422
19.40685
19.416306
19.425772
19.435209
19.444627
19.454058
19.463512
19.472957
19.482305
19.491654
19.501037
19.510417
19.519759
19.52909
19.538448
19.547811
19.557143
19.566459
19.575801
19.585156
19.594493
19.603802
19.613107
19.622445
19.631778
19.64107
19.650362
19.659685
19.668943
19.678097
19.687249
19.696435
19.705617
19.714704
19.723781
19.732883
19.741993
19.75107
19.760073
19.769035
19.778003
19.786882
19.795748
19.8047
19.813655
19.82252
19.831314
19.840064
19.848753
19.857354
19.865946
19.874558
19.883169
19.891754
19.900399
19.90907
19.917676
19.926248
19.934816
19.943479
19.952139
19.960767
19.969396
19.978048
19.986626
19.995109
20.003597
20.012106
20.020603
20.029081
20.037567
20.046064
20.054473
20.062801
20.071149
20.079504
20.087823
20.096135
20.104465
20.112784
20.12108
20.129386
20.137697
20.145984
20.154261
20.162488
20.170707
20.178896
20.187086
20.19529
20.203548
20.211856
20.220178
20.2285
20.236795
20.245086
20.253317
20.261467
20.269529
20.277599
20.285673
20.293721
20.30184
20.30997
20.318084
20.326185
20.334224
20.342264
20.350352
20.358514
20.366685
20.374833
20.382977
20.391131
20.399203
20.40726
20.415325
20.423388
20.431426
20.439467
20.447514
20.455616
20.463713
20.471816
20.479836
20.487772
20.495636
20.50349
20.511331
20.519105
20.526799
20.534476
20.542157
20.549842
20.557509
20.565175
20.572774
20.580284
20.587708
20.595135
20.602553
20.609965
20.617383
20.624875
20.632356
20.639844
20.647332
20.654891
20.662455
20.670017
20.67757
20.685128
20.692767
20.70048
20.708282
20.716084
20.723877
20.731676
20.739472
20.747255
20.755048
20.76284
20.770622
20.778409
20.786195
20.793976
20.801763
20.809548
20.817327
20.825108
20.832885
20.840573
20.848176
20.855769
20.86336
20.870956
20.878542
20.886038
20.893535
20.901016
20.908498
20.915981
20.923457
20.930935
20.938408
20.945884
20.953359
20.960819
20.968189
20.975566
20.982931
20.990388
20.997857
21.005333
21.012794
21.020239
21.027677
21.035007
21.042328
21.049666
21.05702
21.06434
21.071752
21.079179
21.0866
21.094115
21.10162
21.109041
21.116376
21.123702
21.130996
21.138151
21.14522
21.152197
21.159188
21.166194
21.173275
21.180322
21.187384
21.194462
21.201531
21.2087
21.215861
21.223037
21.23023
21.237415
21.244591
21.251646
21.258693
21.265846
21.273104
21.280494
21.287902
21.295303
21.302698
21.310086
21.317491
21.325009
21.332496
21.340001
21.347526
21.355044
21.362556
21.370063
21.377538
21.384984
21.392323
21.399555
21.406655
21.413621
21.420578
21.427655
21.434725
21.441787
21.448842
21.455889
21.462953
21.470031
21.477081
21.484099
21.490998
21.497913
21.504798
21.511674
21.518566
21.52545
21.532326
21.539196
21.546199
21.553337
21.560469
21.567574
21.574528
21.581353
21.588172
21.594983
21.601788
21.608437
21.615056
21.621668
21.628294
21.634738
21.641174
21.647622
21.654042
21.660431
21.666833
21.673248
21.679633
21.685989
21.692499
21.699001
21.705331
21.711653
21.717945
21.724208
21.730484
21.736751
21.742989
21.749219
21.755594
21.761939
21.768279
21.774612
21.780759
21.786898
21.793009
21.799091
21.80498
21.81084
21.81667
21.822471
21.828242
21.834003
21.839926
21.84582
21.851706
21.857759
21.863765
21.869743
21.875714
21.881658
21.887555
21.893424
21.899265
21.90506
21.910827
21.916567
21.922259
21.927925
21.933564
21.939156
21.944701
21.9502
21.955696
21.96123
21.966627
21.971912
21.977176
21.982321
21.98751
21.992676
21.997702
22.002776
22.00778
22.012838
22.017974
22.023036
22.028009
22.032888
22.03762
22.042337
22.047112
22.051925
22.056565
22.061266
22.065803
22.070249
22.074495
22.078682
22.082667
22.086696
22.090667
22.094658
22.09847
22.102167
22.105702
22.108987
22.11229
22.115643
22.11886
22.121895
22.124932
22.127791
22.130558
22.133329
22.136139
22.138763
22.141314
22.143654
22.145921
22.148161
22.150407
22.152498
22.154401
22.156146
22.157835
22.159366
22.160738
22.162123
22.163244
22.164112
22.164783
22.165379
22.166004
22.166567
22.166848
22.166994
)
;

boundaryField
{
INLET
{
    type            cyclic;
}
OUTLET
{
    type            cyclic;
}
WALL
{
    type            fixedValue;
    value           uniform 0;
}
CENTER
{
    type            symmetryPlane;
}
frontAndBackPlanes
{
    type            empty;
}
}


// ************************************************************************* //

