/*--------------------------------*- C++ -*----------------------------------*\
| =========                 |                                                 |
| \\      /  F ield         | OpenFOAM: The Open Source CFD Toolbox           |
|  \\    /   O peration     | Version:  v1806                                 |
|   \\  /    A nd           | Web:      www.OpenFOAM.com                      |
|    \\/     M anipulation  |                                                 |
\*---------------------------------------------------------------------------*/
FoamFile
{
    version     2.0;
    format      ascii;
    class       volScalarField;
    location    0;
    object      Kj_imp;
}
// * * * * * * * * * * * * * * * * * * * * * * * * * * * * * * * * * * * * * //

dimensions      [0 0 0 0 0 0 0];


internalField   nonuniform List<scalar>
1025
(
2332.2103
7005.052
11697.325
16409.065
21140.344
25891.273
30661.921
35452.081
40261.781
45091.373
49940.928
54810.553
59700.16
64609.934
69539.902
74489.477
79458.634
84448.176
89458.083
94488.461
99539.158
104610.19
109702.59
114816.47
119950.99
125106.17
130281.61
135477.49
140693.77
145929.17
151185.51
156462.1
161759.25
167077.16
172415.14
177774.68
183155.78
188557.33
193978.2
199419.18
204881.53
210363.69
215863.71
221383.44
226922.84
232482.38
238059.77
243653.73
249266.39
254898.05
260548.7
266217.67
271905.43
277611.9
283336.95
289081.05
294842.59
300620.51
306412.45
312221.85
318045.47
323885.41
329740.83
335611.94
341500
347402.18
353320.17
359252.61
365201.8
371167.27
377148.5
383143.83
389153.38
395174.63
401205.41
407246.18
413300.84
419367.49
425445.11
431534.47
437635.39
443746.67
449866.15
455991.76
462124.81
468265.14
474416.6
480578.12
486747.48
492927.59
499117.3
505316.37
511518.64
517719.33
523924.96
530135.09
536348.95
542569.23
548795.03
555025.12
561259.26
567495.15
573727.61
579950.44
586170.53
592391.8
598613.5
604838.77
611065.01
617293.1
623526.43
629753.84
635964.21
642158.33
648348.47
654540.18
660731.24
666919.21
673102.87
679287.27
685473.01
691651.31
697809.1
703940.16
710057.18
716174.22
722289.96
728404.64
734518.25
740631.04
746740.06
752842.82
758914.95
764941.53
770944.58
776944.56
782936.98
788921.21
794898.89
800870.75
806838.5
812803.18
818735.39
824600.6
830428.44
836250.62
842065.05
847870.3
853672.93
859464.99
865248.11
871024.21
876772.91
882452.43
888067.54
893655.33
899234.38
904804.9
910371.45
915935.73
921489.43
927033.92
932558.83
938017.08
943389.92
948715.72
954035.77
959350.39
964660.09
969953.49
975241.09
980537.16
985823.29
991043.44
996155.15
1001214.6
1006278.3
1011337
1016393.5
1021444.3
1026489.4
1031528.8
1036565.5
1041547.4
1046411.5
1051206.2
1056001.5
1060801.5
1065596.5
1070388.8
1075180.8
1079967.4
1084751.3
1089484.9
1094103.5
1098639.8
1103158.5
1107675.3
1112189.8
1116704.2
1121223.3
1125740.2
1130266.7
1134755.4
1139136.2
1143428.5
1147701.1
1151972.2
1156243.7
1160515.3
1164785.6
1169055.7
1173314.2
1177522.6
1181613.5
1185617.4
1189611.5
1193607.8
1197604.7
1201602.8
1205603.4
1209602.3
1213601.3
1217551.6
1221373.2
1225120.7
1228860.8
1232602.2
1236354.9
1240110.4
1243866.7
1247623.6
1251376.4
1255055.4
1258608.1
1262094.2
1265583
1269076.4
1272581.3
1276088.7
1279598.7
1283119.9
1286612.5
1290011.5
1293312.7
1296582
1299847.9
1303116.7
1306389.3
1309656.1
1312918.6
1316185.6
1319395.3
1322486.2
1325516.5
1328547.3
1331581.1
1334618.6
1337660.1
1340713.7
1343779.3
1346818.4
1349770
1352636.7
1355478.9
1358325.6
1361184.9
1364056.4
1366931.5
1369811.9
1372684.1
1375489.4
1378198.5
1380868
1383535.5
1386208.9
1388886.4
1391568.4
1394256.3
1396952.8
1399602.7
1402153.7
1404660.7
1407172.7
1409688.8
1412209.9
1414736.5
1417268.6
1419797.3
1422271.5
1424645.3
1426976
1429311.5
1431653.2
1434000.1
1436351.1
1438707.7
1441064.5
1443373.9
1445600.6
1447791.6
1449988.2
1452183.4
1454383.6
1456595.3
1458818.8
1461033.3
1463194.5
1465289.6
1467354.5
1469424.4
1471499.4
1473579.6
1475664.9
1477755.6
1479825.1
1481837.8
1483808.8
1485771.7
1487734.1
1489701.5
1491679.6
1493663
1495646.8
1497593.2
1499469.7
1501319.6
1503174.1
1505033.5
1506898.5
1508768
1510642.1
1512497.4
1514304.1
1516071.9
1517834.7
1519608.3
1521386.8
1523170.6
1524959.9
1526740.3
1528479.6
1530174
1531855
1533541
1535226.7
1536912.5
1538597.1
1540278.8
1541928.8
1543527.8
1545110.4
1546697.4
1548294.3
1549896.3
1551503.1
1553109.3
1554687.4
1556222.5
1557741.6
1559265.5
1560793.8
1562326.2
1563858.2
1565388.2
1566891
1568361.4
1569818.9
1571281.1
1572747.6
1574218.8
1575695
1577164.9
1578606
1580016.7
1581414.8
1582812.6
1584209.8
1585606.7
1587007.8
1588397.6
1589755.8
1591093.1
1592434
1593778.9
1595123.5
1596472.8
1597822.9
1599159.8
1600466.4
1601761.6
1603060.6
1604363.8
1605671.6
1606983.5
1608286.9
1609564.5
1610824
1612082.4
1613344.6
1614615.8
1615891.5
1617165.9
1618421.8
1619654.8
1620881.7
1622108.3
1623334.1
1624559.1
1625787.1
1627003.3
1628194.8
1629376.1
1630561.2
1631750.2
1632943.4
1634140.8
1635329.1
1636495
1637649.9
1638807.4
1639968.7
1641133.9
1642303
1643469.2
1644615.5
1645751.1
1646888.2
1648029.8
1649175.2
1650324
1651465.6
1652587.9
1653701.1
1654817.3
1655937.4
1657061.4
1658188.4
1659307
1660407.7
1661501.8
1662599.4
1663700.4
1664805.8
1665907.3
1666998.4
1668075.9
1669149.4
1670225.9
1671306.7
1672391.9
1673474.2
1674543.8
1675603.6
1676663.2
1677730.7
1678806.4
1679885.6
1680963.2
1682025.9
1683083.4
1684144.5
1685204.5
1686269.1
1687336.5
1688392.9
1689440.3
1690487.5
1691533.9
1692584.2
1693641.1
1694691.6
1695730.4
1696765.6
1697804.4
1698847
1699893.2
1700931
1701952.8
1702965
1703975.9
1704990.2
1706007.5
1707023.3
1708030.6
1709030.8
1710031.5
1711036.1
1712044
1713051.4
1714051
1715043.5
1716036.2
1717032
1718031.5
1719031.6
1720024.4
1721009.3
1721994.1
1722987.1
1723984
1724981
1725970.7
1726953.1
1727936
1728922.7
1729917
1730910.7
1731897.3
1732878.3
1733860.3
1734850.2
1735847.7
1736843.8
1737832.2
1738815.6
1739801.2
1740790.7
1741783.1
1742773.1
1743754.1
1744731.6
1745708.2
1746688.5
1747670.5
1748648.1
1749618.4
1750587.8
1751560.8
1752537.8
1753509.4
1754473.9
1755433.9
1756396
1757361.6
1758329.2
1759288.9
1760237.3
1761184.6
1762135.3
1763088.8
1764041.7
1764988.8
1765936.5
1766885.9
1767839.1
1768793.9
1769740.4
1770681.4
1771626.5
1772579.4
1773540.1
1774504.5
1775461.7
1776416.4
1777369.9
1778321.8
1779268.7
1780205.8
1781139.3
1782073.7
1783011.7
1783946.6
1784877
1785803.4
1786731
1787665.6
1788606.8
1789550.2
1790488.2
1791426.1
1792367.7
1793312.1
1794253.1
1795189
1796124.7
1797063.4
1798004.8
1798943.7
1799882.2
1800825.7
1801772.7
1802721.6
1803667.5
1804608.5
1805545
1806480
1807411.7
1808335.4
1809254.3
1810173.1
1811096.2
1812020.7
1812941
1813863
1814786.4
1815713.2
1816640.5
1817562.8
1818477.3
1819394.5
1820315.4
1821235
1822149
1823061.9
1823973.8
1824887.9
1825799.3
1826701
1827602.7
1828508.5
1829414.6
1830316.5
1831216.5
1832118.2
1833022.9
1833927.1
1834825.8
1835724.1
1836626.4
1837529.7
1838429.1
1839319.9
1840213
1841109.5
1842004.8
1842901.2
1843797
1844695.4
1845594.7
1846491.3
1847386.1
1848282
1849180.3
1850077.7
1850965.7
1851853.9
1852745.4
1853636.6
1854524.2
1855410.7
1856299.8
1857189.4
1858075.9
1858961.1
1859848.6
1860737.4
1861624.4
1862508.8
1863392.9
1864280.1
1865166.8
1866049.7
1866932.4
1867818.2
1868697.8
1869567.5
1870437
1871309.7
1872182.1
1873045.4
1873907.8
1874772.6
1875638.1
1876500.5
1877355.8
1878207.2
1879059.3
1879902.9
1880745.2
1881595.7
1882446.5
1883288.7
1884124.2
1884955.6
1885781.1
1886598.2
1887414.6
1888232.7
1889050.8
1889866.5
1890687.8
1891511.7
1892329.3
1893143.7
1893957.7
1894780.8
1895603.6
1896423.2
1897243.1
1898065.1
1898880
1899686
1900492.4
1901300.8
1902108.2
1902913.6
1903719.8
1904527.1
1905326
1906117.3
1906910.4
1907704.1
1908494.6
1909284.2
1910075.7
1910866
1911654.2
1912443.3
1913232.9
1914020.3
1914806.7
1915588.2
1916369.1
1917147.2
1917925.3
1918704.7
1919489.3
1920278.6
1921069.3
1921859.9
1922648
1923435.7
1924217.7
1924992.1
1925757.9
1926524.7
1927291.8
1928056.4
1928827.8
1929600.2
1930371.1
1931140.7
1931904.5
1932668.3
1933436.7
1934212.3
1934988.5
1935762.7
1936536.4
1937311.1
1938077.9
1938843.4
1939609.7
1940375.8
1941139.4
1941903.4
1942667.9
1943437.7
1944206.9
1944976.8
1945738.7
1946492.7
1947239.8
1947986
1948731
1949469.6
1950200.6
1950929.9
1951659.6
1952389.8
1953118.2
1953846.5
1954568.5
1955282
1955987.3
1956693
1957397.8
1958102
1958806.7
1959518.5
1960229.3
1960940.7
1961652.1
1962370.3
1963088.9
1963807.3
1964524.9
1965243
1965968.7
1966701.5
1967442.8
1968184.1
1968924.4
1969665.4
1970406.1
1971145.6
1971886
1972626.3
1973365.5
1974105.4
1974845.1
1975584.4
1976324.3
1977063.9
1977802.9
1978542.2
1979281
1980011.4
1980733.8
1981455.1
1982176.4
1982898.1
1983618.8
1984331
1985043.2
1985754
1986464.9
1987175.8
1987886.1
1988596.5
1989306.5
1990016.8
1990727
1991435.8
1992136
1992836.8
1993536.6
1994245
1994954.6
1995664.9
1996373.7
1997081.1
1997787.8
1998484.2
1999179.7
1999876.8
2000575.5
2001271
2001975.2
2002680.9
2003385.9
2004099.8
2004812.9
2005517.9
2006214.8
2006910.9
2007603.8
2008283.6
2008955.2
2009618.1
2010282.3
2010947.9
2011620.6
2012290.2
2012961.1
2013633.6
2014305.2
2014986.3
2015666.7
2016348.4
2017031.8
2017714.4
2018396.2
2019066.5
2019736
2020415.6
2021105.2
2021807.3
2022511.1
2023214.3
2023916.8
2024618.7
2025322.2
2026036.5
2026747.8
2027460.9
2028175.8
2028890.1
2029603.8
2030317
2031027.2
2031734.6
2032431.9
2033119
2033793.5
2034455.3
2035116.3
2035788.7
2036460.4
2037131.4
2037801.6
2038471.2
2039142.2
2039814.7
2040484.5
2041151.3
2041806.8
2042463.7
2043117.8
2043771.1
2044425.9
2045079.9
2045733.2
2046385.9
2047051.2
2047729.4
2048407
2049082
2049742.7
2050391.1
2051039
2051686.1
2052332.6
2052964.3
2053593.2
2054221.3
2054850.9
2055463.1
2056074.6
2056687.2
2057297.1
2057904.2
2058512.4
2059121.9
2059728.5
2060332.3
2060950.8
2061568.6
2062170
2062770.6
2063368.4
2063963.5
2064559.7
2065155.1
2065747.7
2066339.6
2066945.3
2067548.2
2068150.5
2068752.2
2069336.2
2069919.5
2070500.1
2071077.9
2071637.4
2072194.1
2072748
2073299.1
2073847.4
2074394.8
2074957.5
2075517.5
2076076.7
2076651.8
2077222.4
2077790.3
2078357.6
2078922.4
2079482.6
2080040.2
2080595.2
2081145.7
2081693.6
2082239
2082779.8
2083318.1
2083853.8
2084385.2
2084912
2085434.4
2085956.5
2086482.3
2086995
2087497.2
2087997.3
2088486.1
2088979.1
2089470
2089947.4
2090429.5
2090904.9
2091385.5
2091873.4
2092354.4
2092826.9
2093290.3
2093739.9
2094188.1
2094641.7
2095099.1
2095539.9
2095986.5
2096417.5
2096839.9
2097243.3
2097641.1
2098019.7
2098402.5
2098779.8
2099159
2099521.1
2099872.4
2100208.2
2100520.4
2100834.2
2101152.7
2101458.4
2101746.7
2102035.2
2102306.9
2102569.7
2102833
2103100
2103349.3
2103591.7
2103814
2104029.3
2104242.1
2104455.6
2104654.2
2104835
2105000.8
2105161.2
2105306.7
2105437
2105568.7
2105675.2
2105757.7
2105821.4
2105878
2105937.4
2105990.9
2106017.6
2106031.4
)
;

boundaryField
{
INLET
{
    type            cyclic;
}
OUTLET
{
    type            cyclic;
}
WALL
{
    type            fixedValue;
    value           uniform 0;
}
CENTER
{
    type            symmetryPlane;
}
frontAndBackPlanes
{
    type            empty;
}
}


// ************************************************************************* //

