/*--------------------------------*- C++ -*----------------------------------*\
| =========                 |                                                 |
| \\      /  F ield         | OpenFOAM: The Open Source CFD Toolbox           |
|  \\    /   O peration     | Version:  v1806                                 |
|   \\  /    A nd           | Web:      www.OpenFOAM.com                      |
|    \\/     M anipulation  |                                                 |
\*---------------------------------------------------------------------------*/
FoamFile
{
    version     2.0;
    format      ascii;
    class       volScalarField;
    location    "10000";
    object      nut;
}
// * * * * * * * * * * * * * * * * * * * * * * * * * * * * * * * * * * * * * //

dimensions      [0 2 -1 0 0 0 0];


internalField   nonuniform List<scalar> 
1025
(
1.06513e-11
7.40467e-10
4.08181e-09
1.2172e-08
2.74236e-08
5.27535e-08
9.19216e-08
1.50006e-07
2.34049e-07
3.53925e-07
5.23468e-07
7.61854e-07
1.09514e-06
1.55774e-06
2.19338e-06
3.05483e-06
4.20178e-06
5.69652e-06
7.59803e-06
9.95621e-06
1.28082e-05
1.61777e-05
2.00772e-05
2.45107e-05
2.94761e-05
3.49662e-05
4.09689e-05
4.74678e-05
5.44405e-05
6.18603e-05
6.96963e-05
7.79132e-05
8.64751e-05
9.53453e-05
0.000104486
0.000113861
0.000123437
0.000133184
0.000143075
0.000153083
0.000163185
0.000173364
0.000183602
0.000193884
0.000204198
0.000214532
0.000224879
0.000235228
0.000245574
0.000255913
0.000266239
0.000276547
0.000286836
0.000297102
0.000307344
0.000317561
0.00032775
0.00033791
0.000348042
0.000358144
0.000368217
0.000378261
0.000388275
0.00039826
0.000408216
0.000418144
0.000428043
0.000437915
0.00044776
0.000457579
0.000467373
0.000477142
0.000486886
0.000496608
0.000506306
0.000515982
0.000525638
0.000535274
0.00054489
0.000554488
0.000564068
0.00057363
0.000583177
0.000592708
0.000602225
0.000611728
0.000621217
0.000630695
0.000640161
0.000649617
0.000659062
0.000668497
0.000677925
0.000687345
0.000696758
0.000706166
0.000715567
0.000724964
0.000734356
0.000743746
0.000753132
0.000762516
0.000771899
0.000781282
0.000790664
0.000800048
0.000809431
0.000818818
0.000828208
0.0008376
0.000846996
0.000856396
0.000865802
0.000875213
0.000884631
0.000894056
0.000903488
0.000912928
0.000922377
0.000931836
0.000941304
0.000950783
0.000960272
0.000969774
0.000979288
0.000988814
0.000998353
0.00100791
0.00101747
0.00102706
0.00103665
0.00104627
0.0010559
0.00106555
0.00107521
0.00108489
0.00109459
0.00110431
0.00111406
0.00112382
0.0011336
0.0011434
0.00115322
0.00116307
0.00117293
0.00118283
0.00119274
0.00120268
0.00121264
0.00122263
0.00123264
0.00124268
0.00125275
0.00126284
0.00127296
0.00128311
0.00129329
0.00130349
0.00131373
0.00132399
0.00133429
0.00134461
0.00135497
0.00136535
0.00137577
0.00138623
0.00139671
0.00140723
0.00141778
0.00142836
0.00143898
0.00144964
0.00146034
0.00147106
0.00148182
0.00149262
0.00150346
0.00151433
0.00152525
0.0015362
0.00154719
0.00155821
0.00156928
0.00158039
0.00159154
0.00160273
0.00161397
0.00162524
0.00163655
0.00164791
0.00165931
0.00167076
0.00168224
0.00169378
0.00170536
0.00171698
0.00172865
0.00174036
0.00175212
0.00176393
0.00177578
0.00178768
0.00179963
0.00181163
0.00182368
0.00183577
0.00184792
0.00186011
0.00187236
0.00188465
0.001897
0.0019094
0.00192185
0.00193434
0.0019469
0.00195951
0.00197217
0.00198488
0.00199765
0.00201047
0.00202335
0.00203628
0.00204927
0.00206231
0.00207541
0.00208857
0.00210179
0.00211506
0.00212839
0.00214178
0.00215523
0.00216873
0.0021823
0.00219593
0.00220961
0.00222335
0.00223715
0.00225102
0.00226495
0.00227894
0.002293
0.00230711
0.00232129
0.00233553
0.00234984
0.00236421
0.00237864
0.00239314
0.0024077
0.00242233
0.00243703
0.00245179
0.00246661
0.00248151
0.00249647
0.00251151
0.00252661
0.00254177
0.002557
0.0025723
0.00258767
0.00260312
0.00261864
0.00263422
0.00264987
0.0026656
0.00268139
0.00269726
0.0027132
0.00272921
0.0027453
0.00276146
0.00277769
0.00279399
0.00281037
0.00282682
0.00284335
0.00285995
0.00287664
0.00289339
0.00291022
0.00292713
0.00294412
0.00296118
0.00297832
0.00299553
0.00301283
0.0030302
0.00304765
0.00306518
0.0030828
0.00310048
0.00311825
0.00313611
0.00315404
0.00317205
0.00319014
0.00320832
0.00322657
0.00324492
0.00326333
0.00328184
0.00330043
0.0033191
0.00333785
0.00335669
0.00337561
0.00339462
0.00341371
0.00343289
0.00345215
0.0034715
0.00349093
0.00351045
0.00353006
0.00354975
0.00356953
0.0035894
0.00360936
0.00362941
0.00364954
0.00366976
0.00369008
0.00371048
0.00373097
0.00375155
0.00377222
0.00379298
0.00381382
0.00383477
0.0038558
0.00387693
0.00389815
0.00391945
0.00394085
0.00396234
0.00398393
0.00400561
0.00402738
0.00404925
0.00407121
0.00409326
0.00411541
0.00413765
0.00415999
0.00418242
0.00420495
0.00422757
0.00425029
0.0042731
0.00429602
0.00431903
0.00434213
0.00436533
0.00438863
0.00441203
0.00443552
0.00445912
0.00448281
0.0045066
0.00453048
0.00455447
0.00457855
0.00460274
0.00462702
0.00465141
0.00467589
0.00470047
0.00472516
0.00474994
0.00477483
0.00479981
0.0048249
0.00485009
0.00487538
0.00490077
0.00492626
0.00495186
0.00497756
0.00500336
0.00502926
0.00505526
0.00508138
0.00510759
0.0051339
0.00516032
0.00518685
0.00521348
0.00524021
0.00526705
0.00529398
0.00532102
0.00534817
0.00537543
0.00540279
0.00543026
0.00545783
0.0054855
0.00551328
0.00554117
0.00556916
0.00559726
0.00562546
0.00565378
0.00568219
0.00571072
0.00573935
0.00576808
0.00579693
0.00582588
0.00585494
0.0058841
0.00591338
0.00594276
0.00597225
0.00600185
0.00603155
0.00606136
0.00609128
0.00612131
0.00615145
0.0061817
0.00621205
0.00624252
0.00627308
0.00630376
0.00633455
0.00636545
0.00639646
0.00642758
0.0064588
0.00649013
0.00652157
0.00655312
0.00658479
0.00661655
0.00664843
0.00668042
0.00671252
0.00674473
0.00677705
0.00680948
0.00684201
0.00687466
0.00690742
0.00694029
0.00697326
0.00700635
0.00703954
0.00707285
0.00710626
0.00713979
0.00717342
0.00720717
0.00724102
0.00727499
0.00730906
0.00734324
0.00737754
0.00741194
0.00744646
0.00748108
0.00751581
0.00755065
0.00758561
0.00762067
0.00765584
0.00769112
0.00772651
0.00776201
0.00779762
0.00783334
0.00786917
0.00790511
0.00794115
0.00797731
0.00801357
0.00804995
0.00808643
0.00812302
0.00815972
0.00819653
0.00823344
0.00827047
0.0083076
0.00834485
0.0083822
0.00841965
0.00845722
0.0084949
0.00853268
0.00857057
0.00860857
0.00864667
0.00868489
0.0087232
0.00876163
0.00880016
0.0088388
0.00887755
0.0089164
0.00895536
0.00899442
0.0090336
0.00907287
0.00911225
0.00915174
0.00919134
0.00923104
0.00927084
0.00931075
0.00935076
0.00939088
0.00943111
0.00947144
0.00951188
0.00955242
0.00959307
0.00963381
0.00967467
0.00971562
0.00975667
0.00979783
0.00983909
0.00988045
0.00992192
0.00996348
0.0100051
0.0100469
0.0100888
0.0101307
0.0101728
0.010215
0.0102572
0.0102996
0.0103421
0.0103846
0.0104273
0.0104701
0.0105129
0.0105559
0.0105989
0.0106421
0.0106853
0.0107286
0.0107721
0.0108156
0.0108592
0.010903
0.0109468
0.0109907
0.0110347
0.0110788
0.011123
0.0111673
0.0112116
0.0112561
0.0113006
0.0113453
0.0113901
0.0114349
0.0114798
0.0115248
0.0115699
0.0116151
0.0116604
0.0117058
0.0117512
0.0117968
0.0118424
0.0118881
0.0119339
0.0119798
0.0120258
0.0120719
0.012118
0.0121642
0.0122105
0.0122569
0.0123034
0.0123499
0.0123966
0.0124433
0.0124901
0.0125369
0.0125839
0.0126309
0.0126781
0.0127253
0.0127726
0.0128199
0.0128673
0.0129148
0.0129624
0.0130101
0.0130578
0.0131056
0.0131535
0.0132014
0.0132494
0.0132975
0.0133456
0.0133939
0.0134422
0.0134905
0.013539
0.0135875
0.0136361
0.0136847
0.0137334
0.0137822
0.0138311
0.0138799
0.0139289
0.0139779
0.014027
0.0140762
0.0141254
0.0141747
0.014224
0.0142734
0.0143229
0.0143724
0.0144219
0.0144716
0.0145213
0.014571
0.0146208
0.0146706
0.0147205
0.0147705
0.0148205
0.0148705
0.0149206
0.0149708
0.015021
0.0150712
0.0151215
0.0151719
0.0152223
0.0152727
0.0153232
0.0153737
0.0154242
0.0154748
0.0155255
0.0155762
0.0156269
0.0156777
0.0157285
0.0157793
0.0158302
0.0158811
0.015932
0.015983
0.016034
0.016085
0.0161361
0.0161872
0.0162383
0.0162895
0.0163407
0.0163919
0.0164431
0.0164944
0.0165457
0.016597
0.0166483
0.0166997
0.016751
0.0168025
0.0168539
0.0169053
0.0169567
0.0170082
0.0170597
0.0171112
0.0171627
0.0172142
0.0172657
0.0173172
0.0173687
0.0174203
0.0174719
0.0175234
0.017575
0.0176265
0.0176781
0.0177297
0.0177813
0.0178328
0.0178844
0.017936
0.0179875
0.0180391
0.0180906
0.0181422
0.0181937
0.0182453
0.0182968
0.0183483
0.0183998
0.0184513
0.0185027
0.0185542
0.0186056
0.018657
0.0187084
0.0187598
0.0188112
0.0188625
0.0189138
0.0189651
0.0190163
0.0190676
0.0191188
0.01917
0.0192211
0.0192722
0.0193233
0.0193743
0.0194253
0.0194763
0.0195272
0.0195781
0.019629
0.0196798
0.0197306
0.0197813
0.019832
0.0198826
0.0199332
0.0199837
0.0200342
0.0200847
0.0201351
0.0201854
0.0202357
0.0202859
0.0203361
0.0203862
0.0204362
0.0204862
0.0205361
0.020586
0.0206358
0.0206855
0.0207351
0.0207847
0.0208342
0.0208837
0.0209331
0.0209824
0.0210316
0.0210807
0.0211298
0.0211788
0.0212277
0.0212765
0.0213253
0.021374
0.0214225
0.021471
0.0215194
0.0215677
0.0216159
0.0216641
0.0217121
0.02176
0.0218079
0.0218556
0.0219033
0.0219508
0.0219983
0.0220456
0.0220929
0.02214
0.022187
0.022234
0.0222808
0.0223275
0.0223741
0.0224205
0.0224669
0.0225132
0.0225593
0.0226053
0.0226512
0.022697
0.0227427
0.0227882
0.0228336
0.0228789
0.0229241
0.0229691
0.023014
0.0230588
0.0231035
0.023148
0.0231924
0.0232366
0.0232807
0.0233247
0.0233686
0.0234123
0.0234559
0.0234993
0.0235426
0.0235857
0.0236287
0.0236716
0.0237143
0.0237569
0.0237993
0.0238416
0.0238837
0.0239257
0.0239676
0.0240093
0.0240508
0.0240922
0.0241334
0.0241745
0.0242154
0.0242562
0.0242968
0.0243373
0.0243776
0.0244177
0.0244577
0.0244975
0.0245372
0.0245767
0.0246161
0.0246553
0.0246943
0.0247332
0.0247719
0.0248105
0.0248489
0.0248871
0.0249252
0.0249631
0.0250009
0.0250385
0.0250759
0.0251132
0.0251503
0.0251873
0.0252241
0.0252607
0.0252972
0.0253335
0.0253697
0.0254057
0.0254416
0.0254773
0.0255128
0.0255482
0.0255835
0.0256185
0.0256535
0.0256883
0.0257229
0.0257574
0.0257918
0.025826
0.02586
0.0258939
0.0259277
0.0259613
0.0259948
0.0260282
0.0260614
0.0260945
0.0261275
0.0261603
0.0261931
0.0262257
0.0262581
0.0262905
0.0263227
0.0263549
0.0263869
0.0264188
0.0264506
0.0264823
0.0265139
0.0265454
0.0265768
0.0266082
0.0266394
0.0266706
0.0267017
0.0267327
0.0267636
0.0267945
0.0268253
0.0268561
0.0268868
0.0269174
0.026948
0.0269786
0.0270091
0.0270397
0.0270701
0.0271006
0.027131
0.0271615
0.0271919
0.0272223
0.0272527
0.0272832
0.0273136
0.0273441
0.0273746
0.0274051
0.0274357
0.0274663
0.0274969
0.0275277
0.0275584
0.0275893
0.0276202
0.0276512
0.0276823
0.0277135
0.0277447
0.0277761
0.0278076
0.0278392
0.0278709
0.0279028
0.0279348
0.0279669
0.0279992
0.0280316
0.0280642
0.0280969
0.0281298
0.0281629
0.0281961
0.0282295
0.0282631
0.0282969
0.0283309
0.0283651
0.0283994
0.028434
0.0284688
0.0285038
0.028539
0.0285744
0.02861
0.0286458
0.0286819
0.0287181
0.0287546
0.0287912
0.0288281
0.0288651
0.0289024
0.0289398
0.0289775
0.0290153
0.0290533
0.0290915
0.0291298
0.0291683
0.0292069
0.0292456
0.0292845
0.0293235
0.0293625
0.0294017
0.0294409
0.0294801
0.0295194
0.0295587
0.0295979
0.0296371
0.0296763
0.0297154
0.0297544
0.0297932
0.0298319
0.0298704
0.0299086
0.0299466
0.0299844
0.0300218
0.0300588
0.0300955
0.0301318
0.0301675
0.0302028
0.0302376
0.0302717
0.0303053
0.0303381
0.0303703
0.0304017
0.0304323
0.030462
0.0304909
0.0305188
0.0305457
0.0305716
0.0305965
0.0306202
0.0306427
0.030664
0.0306841
0.0307028
0.0307202
0.0307362
0.0307508
0.0307639
0.0307754
0.0307854
0.0307939
0.0308006
0.0308058
0.0308092
0.0308109
)
;

boundaryField
{
    INLET
    {
        type            cyclic;
    }
    OUTLET
    {
        type            cyclic;
    }
    CENTER
    {
        type            symmetryPlane;
    }
    WALL
    {
        type            fixedValue;
        value           uniform 0;
    }
    frontAndBackPlanes
    {
        type            empty;
    }
}


// ************************************************************************* //
