/*--------------------------------*- C++ -*----------------------------------*\
| =========                 |                                                 |
| \\      /  F ield         | OpenFOAM: The Open Source CFD Toolbox           |
|  \\    /   O peration     | Version:  v1806                                 |
|   \\  /    A nd           | Web:      www.OpenFOAM.com                      |
|    \\/     M anipulation  |                                                 |
\*---------------------------------------------------------------------------*/
FoamFile
{
    version     2.0;
    format      ascii;
    class       volScalarField;
    location    "10000";
    object      nutL_DNS;
}
// * * * * * * * * * * * * * * * * * * * * * * * * * * * * * * * * * * * * * //

dimensions      [0 2 -1 0 0 0 0];


internalField   nonuniform List<scalar> 
1025
(
1e-12
1.44502e-11
5.99077e-11
1.4628e-10
3.31923e-10
5.89707e-10
8.70637e-10
1.52772e-09
2.18784e-09
2.85124e-09
4.0641e-09
5.55946e-09
7.06159e-09
8.57145e-09
1.06779e-08
1.37466e-08
1.68282e-08
1.99243e-08
2.30375e-08
2.68687e-08
3.26682e-08
3.84886e-08
4.43381e-08
5.02129e-08
5.61282e-08
6.36641e-08
7.39101e-08
8.41769e-08
9.44916e-08
1.04856e-07
1.15269e-07
1.25838e-07
1.41404e-07
1.58453e-07
1.7555e-07
1.9273e-07
2.09983e-07
2.27319e-07
2.44975e-07
2.67722e-07
2.94774e-07
3.21719e-07
3.48782e-07
3.7598e-07
4.03302e-07
4.30757e-07
4.59334e-07
4.97234e-07
5.37938e-07
5.78609e-07
6.19452e-07
6.60354e-07
7.01621e-07
7.42939e-07
7.85803e-07
8.37572e-07
8.97924e-07
9.563e-07
1.01525e-06
1.07412e-06
1.13327e-06
1.19292e-06
1.25285e-06
1.3186e-06
1.40024e-06
1.48413e-06
1.56534e-06
1.6467e-06
1.72819e-06
1.81039e-06
1.89335e-06
1.97597e-06
2.06903e-06
2.18479e-06
2.30164e-06
2.40938e-06
2.5182e-06
2.62757e-06
2.73695e-06
2.84682e-06
2.95735e-06
3.07195e-06
3.22575e-06
3.39968e-06
3.53845e-06
3.67853e-06
3.81878e-06
3.95909e-06
4.10097e-06
4.24338e-06
4.38564e-06
4.55974e-06
4.78989e-06
5.00809e-06
5.18122e-06
5.3551e-06
5.53059e-06
5.70733e-06
5.88414e-06
6.06149e-06
6.24105e-06
6.48972e-06
6.81692e-06
7.08965e-06
7.29982e-06
7.51062e-06
7.72439e-06
7.93985e-06
8.15427e-06
8.36845e-06
8.58704e-06
8.91176e-06
9.36346e-06
9.7244e-06
9.97421e-06
1.02237e-05
1.04744e-05
1.07285e-05
1.09823e-05
1.12373e-05
1.14939e-05
1.18731e-05
1.24849e-05
1.29981e-05
1.32865e-05
1.35757e-05
1.38663e-05
1.41598e-05
1.44526e-05
1.47483e-05
1.50433e-05
1.54108e-05
1.62244e-05
1.70116e-05
1.73354e-05
1.76612e-05
1.79926e-05
1.83228e-05
1.86546e-05
1.89879e-05
1.93199e-05
1.96583e-05
2.06323e-05
2.17648e-05
2.22283e-05
2.25907e-05
2.29556e-05
2.33192e-05
2.36845e-05
2.40599e-05
2.44295e-05
2.47976e-05
2.57718e-05
2.72201e-05
2.80678e-05
2.847e-05
2.88637e-05
2.926e-05
2.9665e-05
3.0066e-05
3.04707e-05
3.08783e-05
3.17167e-05
3.35363e-05
3.49842e-05
3.54121e-05
3.58422e-05
3.62687e-05
3.66932e-05
3.71336e-05
3.7566e-05
3.80022e-05
3.8585e-05
4.08326e-05
4.31006e-05
4.35525e-05
4.40035e-05
4.44501e-05
4.49085e-05
4.53757e-05
4.58351e-05
4.62997e-05
4.67598e-05
4.92494e-05
5.22438e-05
5.30105e-05
5.34739e-05
5.39496e-05
5.4429e-05
5.49157e-05
5.5403e-05
5.58898e-05
5.63684e-05
5.90026e-05
6.26096e-05
6.39e-05
6.43802e-05
6.48785e-05
6.53801e-05
6.58831e-05
6.63873e-05
6.68798e-05
6.7376e-05
7.03705e-05
7.46553e-05
7.63445e-05
7.68572e-05
7.73515e-05
7.78877e-05
7.83874e-05
7.88894e-05
7.94338e-05
7.99401e-05
8.3586e-05
8.87128e-05
9.04592e-05
9.09837e-05
9.15326e-05
9.20378e-05
9.25417e-05
9.30767e-05
9.36173e-05
9.41537e-05
9.90818e-05
0.000105152
0.00010639
0.000106901
0.000107438
0.00010797
0.000108482
0.000109033
0.000109574
0.000110791
0.000117316
0.000123639
0.00012419
0.000124722
0.000125218
0.000125765
0.000126316
0.000126831
0.000127386
0.000131084
0.000138794
0.000143436
0.000143937
0.000144441
0.000144995
0.00014555
0.000146109
0.000146606
0.000147123
0.000155066
0.000164195
0.000165244
0.00016577
0.000166299
0.000166862
0.00016737
0.000167882
0.000168427
0.000173493
0.000183392
0.00018871
0.000189176
0.000189679
0.00019022
0.000190798
0.000191309
0.000191789
0.000194565
0.000205299
0.000214306
0.000214773
0.000215238
0.000215788
0.000216387
0.000216859
0.000217333
0.000218602
0.000230247
0.000242124
0.000242547
0.000243031
0.000243659
0.000244131
0.000244605
0.000245082
0.000245958
0.000258684
0.000272103
0.000272657
0.000273139
0.000273505
0.000274065
0.000274673
0.000275046
0.000276956
0.000291001
0.000304426
0.000304748
0.000305263
0.000305781
0.0003063
0.000306821
0.000307206
0.000312363
0.000327652
0.000338722
0.000339242
0.000339648
0.000340272
0.000340685
0.000341096
0.000341565
0.00035214
0.00036921
0.000375464
0.000375736
0.000376204
0.000376672
0.000377197
0.000377723
0.000380093
0.00039727
0.000413445
0.00041378
0.000414339
0.000414795
0.000415194
0.00041576
0.00041622
0.000428936
0.000447925
0.000454018
0.000454582
0.000454831
0.000455334
0.00045565
0.000455905
0.000464284
0.000483855
0.000495984
0.000496348
0.000496714
0.000496858
0.000497292
0.00049795
0.000502986
0.000523299
0.000539411
0.000539617
0.000540156
0.000540433
0.000540713
0.000541063
0.00054563
0.000566515
0.000583967
0.000584069
0.000584612
0.000585085
0.000585558
0.000585738
0.00059176
0.000613617
0.000629793
0.000630186
0.000630584
0.000630906
0.000630898
0.000631365
0.000641667
0.000663898
0.000676753
0.000676984
0.000677216
0.000677525
0.000677835
0.000678072
0.000694846
0.000717838
0.000724014
0.000724571
0.000724629
0.000724843
0.000725057
0.000729157
0.000751773
0.00077118
0.000771678
0.000772257
0.000772287
0.000772317
0.00077289
0.000788842
0.000812374
0.000819312
0.000819742
0.000820258
0.000820092
0.000819932
0.000828125
0.000851844
0.00086754
0.000867171
0.000867445
0.000867807
0.000868244
0.000869877
0.00089232
0.000915173
0.000915372
0.000915659
0.000915941
0.000915455
0.000915649
0.000936765
0.000960296
0.00096266
0.000962784
0.000962907
0.000963115
0.000963233
0.000982618
0.00100599
0.00100992
0.00100997
0.00100931
0.00101005
0.00101001
0.00103063
0.00105459
0.00105623
0.00105611
0.00105598
0.00105595
0.00105756
0.00108022
0.00110193
0.00110172
0.00110239
0.00110219
0.00110129
0.00110901
0.00113104
0.00114647
0.00114805
0.00114776
0.00114664
0.00114644
0.00116094
0.00118338
0.00119177
0.00119237
0.00119191
0.00119154
0.00119231
0.00121438
0.00123602
0.00123548
0.00123595
0.0012356
0.00123434
0.00124792
0.00127004
0.00127893
0.00127946
0.00127903
0.00127851
0.00128214
0.00130392
0.00132188
0.00132229
0.0013216
0.001321
0.00132158
0.00134063
0.0013624
0.00136392
0.00136325
0.00136371
0.00136416
0.00137713
0.00139836
0.00140683
0.001406
0.00140534
0.00140586
0.00141678
0.00143843
0.00144722
0.0014477
0.00144809
0.00144608
0.00145609
0.0014784
0.00148989
0.00148901
0.00148821
0.00148733
0.00149758
0.00152061
0.00153113
0.00152888
0.00152928
0.00152968
0.00154137
0.00156237
0.00157066
0.00156962
0.00156989
0.00157025
0.00158492
0.00160658
0.00161234
0.00160989
0.00161011
0.00161053
0.00162965
0.00165182
0.00165212
0.00165111
0.00164993
0.00165565
0.00167678
0.00169252
0.00169126
0.00169018
0.00168911
0.00170331
0.0017264
0.00173098
0.00172983
0.00173011
0.00173314
0.00175365
0.00177016
0.00176884
0.00176898
0.00176921
0.00178267
0.00180375
0.00181001
0.00180869
0.00180728
0.00181348
0.00183336
0.00184726
0.00184749
0.00184744
0.00184595
0.00186478
0.00188705
0.00188742
0.0018853
0.0018832
0.00189836
0.00192004
0.00192566
0.00192488
0.00192272
0.00193317
0.001954
0.00196203
0.00196103
0.0019609
0.00196895
0.00198826
0.00200023
0.00200078
0.00199892
0.00200431
0.0020253
0.00203816
0.00203756
0.00203618
0.00204063
0.0020626
0.00207545
0.00207378
0.0020747
0.00207976
0.00209926
0.00211293
0.00211188
0.00211082
0.00211829
0.00213875
0.00215149
0.00215015
0.00214792
0.00215786
0.0021784
0.00218751
0.00218588
0.00218424
0.00219761
0.00221825
0.00222446
0.00222163
0.0022197
0.00224105
0.00226086
0.00225953
0.00225638
0.0022614
0.00228286
0.00229711
0.0022955
0.00229202
0.00230604
0.00232663
0.00233226
0.0023295
0.00232842
0.00235154
0.00236947
0.00236536
0.00236401
0.00237496
0.00239656
0.00240459
0.00240185
0.00240125
0.00241972
0.00243922
0.00243839
0.00243562
0.00244796
0.00246819
0.00247304
0.00247192
0.00247439
0.00249444
0.00250988
0.00250733
0.00250479
0.00252274
0.00254291
0.00254209
0.00254124
0.00255234
0.00257238
0.00257701
0.00257467
0.0025824
0.00260108
0.00261412
0.00261273
0.00261085
0.00263144
0.00265015
0.00264719
0.00264422
0.00266474
0.00268548
0.00268093
0.00267974
0.00269523
0.00271451
0.00271893
0.00271403
0.00272806
0.0027486
0.00274984
0.00274966
0.00276223
0.0027805
0.00278442
0.00278179
0.00279555
0.00281232
0.00281675
0.002816
0.00282819
0.00284779
0.002849
0.00284716
0.00286139
0.00287941
0.00288187
0.0028761
0.00289452
0.0029139
0.0029108
0.00290769
0.00292673
0.00294444
0.00294177
0.00294281
0.00296172
0.00297625
0.00297097
0.00297769
0.00299497
0.00300468
0.00300137
0.00301235
0.00303178
0.00303436
0.00302915
0.00304747
0.00306913
0.00306516
0.00306879
0.0030886
0.00309915
0.00309555
0.00310819
0.0031279
0.00312873
0.00312712
0.00314729
0.00316596
0.00316237
0.00316747
0.00318683
0.00319494
0.00319169
0.00320984
0.00322741
0.00322479
0.00323075
0.00324942
0.00325941
0.00325225
0.00327065
0.00328918
0.00328407
0.00329114
0.00330937
0.00331771
0.00331358
0.00333153
0.00334643
0.00334195
0.00335478
0.00337261
0.00337285
0.00337544
0.00339371
0.00340189
0.00339986
0.00341719
0.00343205
0.00342715
0.00344053
0.00345901
0.00345817
0.00346299
0.00347927
0.00348456
0.00348649
0.0035044
0.00351196
0.00350579
0.00352402
0.00353775
0.00353184
0.00354329
0.00355796
0.0035556
0.00356088
0.00357587
0.00357772
0.00358203
0.00359738
0.00359958
0.00360096
0.00361538
0.00361986
0.00361959
0.00363168
0.00363847
0.00363783
0.0036502
0.00365726
0.00365563
0.00366702
0.00367432
0.00367352
0.00368515
0.00369203
0.00369082
0.00370471
0.00371119
0.00370686
0.00372096
0.00372762
0.0037255
0.00373652
0.00374065
0.00374193
0.00375256
0.00375511
0.00375862
0.00377005
0.00376742
0.00377317
0.00378692
0.00378177
0.00379036
0.00380107
0.00379553
0.00380856
0.0038162
0.00381402
0.00382515
0.00382755
0.00382975
0.00383776
0.00383488
0.00384468
0.00385494
0.00384673
0.00385445
0.00386425
0.00386308
0.00385698
0.00386087
0.00387592
0.00388383
0.00389052
0.00389652
0.00390339
0.00388372
0.00389059
0.00392403
0.00390264
0.00390896
0.00391586
0.00392132
0.00392731
0.00390648
0.00391194
0.0039172
0.00394925
0.0039553
0.00393385
0.00393839
0.00391694
0.00392237
0.00395376
0.00395798
0.00393613
0.00394076
0.00394501
0.00394876
0.00395257
0.00393022
0.00393488
0.00393838
0.00394166
0.00394517
0.00394849
0.00395155
0.0039544
0.0039305
0.0039332
0.00393637
0.00393856
0.0039408
0.00391676
0.00394508
0.00394709
0.00392234
0.00392374
0.00392496
0.00392636
0.00392757
0.0039548
0.00395612
0.00393058
0.00393125
0.00393123
0.00393098
0.00393133
0.00393183
0.00393171
0.00393087
0.0039302
0.00392969
0.00390254
0.00390136
0.00392648
0.00392445
0.00389664
0.00389511
0.00391939
0.00389108
0.00388783
0.0038849
0.00388217
0.00387934
0.00387522
0.00387143
0.0038678
0.0038894
0.00385919
0.00385462
0.00384956
0.00384395
0.00383894
0.00383332
0.00385271
0.00382109
0.0038144
0.00383297
0.00380074
0.00379337
0.00381107
0.00380307
0.00377002
0.00376162
0.00377777
0.00376873
0.00375969
0.00375027
0.00374048
0.00373031
0.00374497
0.0037347
0.00369869
0.00371161
0.00370006
0.00368817
0.00370023
0.00368719
0.00367402
0.00366011
0.00364638
0.00363251
0.00364215
0.00362682
0.0036114
0.00362032
0.0036037
0.00361162
0.0035947
0.00357686
0.00358346
0.0035653
0.00354665
0.00355213
0.00355755
0.00353712
0.00351618
0.00351973
0.00352293
0.0035004
0.00350255
0.00350456
0.00348028
0.00348059
0.00348066
0.00345468
0.00345362
0.00345143
0.00344842
0.00344547
0.00341541
0.00338439
0.0033787
0.00339844
0.00339123
0.00335721
0.00334884
0.00333929
0.00332899
0.00331819
0.00330612
0.00332084
0.00328052
0.00326586
0.003278
0.00323385
0.00324395
0.00322559
0.00320566
0.00321369
0.00316344
0.0031685
0.00317328
0.00314754
0.00314987
0.00315127
0.00312126
0.00312044
0.00311864
0.00308334
0.00307858
0.00307252
0.00309915
0.0030911
0.00304551
0.00303298
0.00305537
0.00307794
0.00302096
0.00303941
0.00305825
0.00298979
0.00300317
0.00301589
0.0029797
0.00293907
0.00294304
0.00294528
0.00294496
0.00294237
0.00293655
0.00292712
0.00291294
0.00289407
0.00286775
0.00283236
0.00278427
0.00283272
0.00289345
0.00280311
0.00286782
0.00297708
0.00269534
0.0035479
)
;

boundaryField
{
    INLET
    {
        type            cyclic;
    }
    OUTLET
    {
        type            cyclic;
    }
    CENTER
    {
        type            symmetryPlane;
    }
    WALL
    {
        type            fixedValue;
        value           uniform 0;
    }
    frontAndBackPlanes
    {
        type            empty;
    }
}


// ************************************************************************* //
