/*--------------------------------*- C++ -*----------------------------------*\
| =========                 |                                                 |
| \\      /  F ield         | OpenFOAM: The Open Source CFD Toolbox           |
|  \\    /   O peration     | Version:  v1806                                 |
|   \\  /    A nd           | Web:      www.OpenFOAM.com                      |
|    \\/     M anipulation  |                                                 |
\*---------------------------------------------------------------------------*/
FoamFile
{
    version     2.0;
    format      ascii;
    class       volScalarField;
    location    "10000";
    object      p;
}
// * * * * * * * * * * * * * * * * * * * * * * * * * * * * * * * * * * * * * //

dimensions      [0 2 -2 0 0 0 0];


internalField   nonuniform List<scalar> 
1025
(
1.85649e-16
7.81446e-16
8.91679e-16
8.45726e-16
8.04878e-16
7.78654e-16
7.54113e-16
7.27867e-16
7.0077e-16
6.73609e-16
6.46561e-16
6.19614e-16
5.92685e-16
5.65696e-16
5.38524e-16
5.11062e-16
4.83168e-16
4.54688e-16
4.25434e-16
3.95207e-16
3.63769e-16
3.30892e-16
2.96331e-16
2.59837e-16
2.21154e-16
1.80072e-16
1.36338e-16
8.9726e-17
4.00211e-17
-1.29505e-17
-6.93911e-17
-1.29448e-16
-1.93252e-16
-2.6094e-16
-3.32619e-16
-4.08362e-16
-4.88239e-16
-5.7229e-16
-6.60543e-16
-7.53037e-16
-8.49784e-16
-9.50758e-16
-1.05598e-15
-1.16543e-15
-1.27903e-15
-1.39679e-15
-1.51869e-15
-1.64473e-15
-1.7748e-15
-1.90885e-15
-2.04687e-15
-2.18882e-15
-2.3346e-15
-2.48418e-15
-2.63762e-15
-2.79476e-15
-2.95552e-15
-3.11991e-15
-3.2879e-15
-3.45938e-15
-3.63437e-15
-3.81278e-15
-3.99455e-15
-4.17967e-15
-4.36806e-15
-4.55972e-15
-4.75454e-15
-4.95247e-15
-5.15346e-15
-5.35756e-15
-5.5647e-15
-5.77488e-15
-5.98799e-15
-6.2039e-15
-6.42262e-15
-6.64417e-15
-6.86852e-15
-7.09556e-15
-7.32528e-15
-7.55766e-15
-7.79264e-15
-8.03015e-15
-8.27026e-15
-8.51294e-15
-8.75807e-15
-9.00561e-15
-9.25553e-15
-9.50781e-15
-9.7625e-15
-1.00195e-14
-1.02787e-14
-1.05401e-14
-1.08038e-14
-1.10698e-14
-1.13378e-14
-1.16079e-14
-1.18801e-14
-1.21545e-14
-1.24309e-14
-1.27094e-14
-1.299e-14
-1.32724e-14
-1.35567e-14
-1.3843e-14
-1.41311e-14
-1.44211e-14
-1.4713e-14
-1.50069e-14
-1.53024e-14
-1.55996e-14
-1.58987e-14
-1.61995e-14
-1.6502e-14
-1.68064e-14
-1.71123e-14
-1.74197e-14
-1.77289e-14
-1.80396e-14
-1.8352e-14
-1.86661e-14
-1.89817e-14
-1.92987e-14
-1.96174e-14
-1.99377e-14
-2.02593e-14
-2.05823e-14
-2.09068e-14
-2.1233e-14
-2.15606e-14
-2.18893e-14
-2.22196e-14
-2.25511e-14
-2.28841e-14
-2.32184e-14
-2.3554e-14
-2.38909e-14
-2.42292e-14
-2.45686e-14
-2.49095e-14
-2.52516e-14
-2.55948e-14
-2.59393e-14
-2.6285e-14
-2.66316e-14
-2.69798e-14
-2.73293e-14
-2.76798e-14
-2.80314e-14
-2.83843e-14
-2.87382e-14
-2.90933e-14
-2.94495e-14
-2.98068e-14
-3.01652e-14
-3.05246e-14
-3.08852e-14
-3.12468e-14
-3.16095e-14
-3.19733e-14
-3.23375e-14
-3.27032e-14
-3.307e-14
-3.34375e-14
-3.38062e-14
-3.41758e-14
-3.45464e-14
-3.49179e-14
-3.52906e-14
-3.56641e-14
-3.60385e-14
-3.64139e-14
-3.67903e-14
-3.71673e-14
-3.75453e-14
-3.79244e-14
-3.83043e-14
-3.86853e-14
-3.90674e-14
-3.94497e-14
-3.98332e-14
-4.02175e-14
-4.06029e-14
-4.09889e-14
-4.13756e-14
-4.17635e-14
-4.21518e-14
-4.25409e-14
-4.29308e-14
-4.33218e-14
-4.37135e-14
-4.41058e-14
-4.44987e-14
-4.48926e-14
-4.52872e-14
-4.56828e-14
-4.60794e-14
-4.64762e-14
-4.68736e-14
-4.72721e-14
-4.76714e-14
-4.80712e-14
-4.84718e-14
-4.88732e-14
-4.92755e-14
-4.96782e-14
-5.00818e-14
-5.04863e-14
-5.08916e-14
-5.12973e-14
-5.17039e-14
-5.2111e-14
-5.25191e-14
-5.29281e-14
-5.33373e-14
-5.37475e-14
-5.41585e-14
-5.45701e-14
-5.49824e-14
-5.53953e-14
-5.58087e-14
-5.62225e-14
-5.66372e-14
-5.70528e-14
-5.7469e-14
-5.78857e-14
-5.83032e-14
-5.8721e-14
-5.91394e-14
-5.95579e-14
-5.99777e-14
-6.03984e-14
-6.08193e-14
-6.12405e-14
-6.16625e-14
-6.20846e-14
-6.25073e-14
-6.29319e-14
-6.33566e-14
-6.37814e-14
-6.42063e-14
-6.46321e-14
-6.5059e-14
-6.54858e-14
-6.59139e-14
-6.6343e-14
-6.67707e-14
-6.71993e-14
-6.7629e-14
-6.80593e-14
-6.84902e-14
-6.89206e-14
-6.93524e-14
-6.9785e-14
-7.02181e-14
-7.06504e-14
-7.1083e-14
-7.15169e-14
-7.19515e-14
-7.23863e-14
-7.2821e-14
-7.32569e-14
-7.36936e-14
-7.41301e-14
-7.45671e-14
-7.5005e-14
-7.54435e-14
-7.58821e-14
-7.63209e-14
-7.676e-14
-7.71997e-14
-7.76405e-14
-7.80818e-14
-7.85232e-14
-7.89647e-14
-7.94073e-14
-7.98507e-14
-8.02941e-14
-8.07377e-14
-8.11822e-14
-8.16264e-14
-8.20716e-14
-8.25185e-14
-8.29655e-14
-8.34123e-14
-8.386e-14
-8.43069e-14
-8.4755e-14
-8.52049e-14
-8.5654e-14
-8.6103e-14
-8.65532e-14
-8.70046e-14
-8.74563e-14
-8.79075e-14
-8.83588e-14
-8.88109e-14
-8.92634e-14
-8.97161e-14
-9.01701e-14
-9.06242e-14
-9.10782e-14
-9.15335e-14
-9.1989e-14
-9.24447e-14
-9.29007e-14
-9.33572e-14
-9.38141e-14
-9.42704e-14
-9.47284e-14
-9.51876e-14
-9.56464e-14
-9.6105e-14
-9.65649e-14
-9.7025e-14
-9.74853e-14
-9.7946e-14
-9.8407e-14
-9.88681e-14
-9.93296e-14
-9.97929e-14
-1.00255e-13
-1.00716e-13
-1.01179e-13
-1.01642e-13
-1.02107e-13
-1.02571e-13
-1.03035e-13
-1.03499e-13
-1.03964e-13
-1.04429e-13
-1.04896e-13
-1.05362e-13
-1.05828e-13
-1.06296e-13
-1.06763e-13
-1.0723e-13
-1.077e-13
-1.08167e-13
-1.08636e-13
-1.09104e-13
-1.09574e-13
-1.10044e-13
-1.10514e-13
-1.10984e-13
-1.11455e-13
-1.11926e-13
-1.12397e-13
-1.12869e-13
-1.13341e-13
-1.13815e-13
-1.14288e-13
-1.14763e-13
-1.15235e-13
-1.15706e-13
-1.16179e-13
-1.16652e-13
-1.17126e-13
-1.17598e-13
-1.18073e-13
-1.18547e-13
-1.19022e-13
-1.19497e-13
-1.19971e-13
-1.20446e-13
-1.20921e-13
-1.21397e-13
-1.21872e-13
-1.22346e-13
-1.22822e-13
-1.23302e-13
-1.23778e-13
-1.24253e-13
-1.24726e-13
-1.25205e-13
-1.25686e-13
-1.26162e-13
-1.2664e-13
-1.27116e-13
-1.27595e-13
-1.28073e-13
-1.28551e-13
-1.2903e-13
-1.29509e-13
-1.29987e-13
-1.30465e-13
-1.30944e-13
-1.31423e-13
-1.31904e-13
-1.32383e-13
-1.32862e-13
-1.33343e-13
-1.33822e-13
-1.34305e-13
-1.34786e-13
-1.35265e-13
-1.35745e-13
-1.36226e-13
-1.36709e-13
-1.37191e-13
-1.37671e-13
-1.38158e-13
-1.38635e-13
-1.39117e-13
-1.396e-13
-1.4008e-13
-1.40561e-13
-1.41041e-13
-1.41525e-13
-1.42008e-13
-1.4249e-13
-1.42972e-13
-1.43451e-13
-1.43933e-13
-1.44417e-13
-1.44901e-13
-1.45383e-13
-1.45865e-13
-1.46346e-13
-1.46826e-13
-1.47308e-13
-1.47791e-13
-1.48272e-13
-1.48755e-13
-1.49236e-13
-1.49721e-13
-1.502e-13
-1.50681e-13
-1.51166e-13
-1.51649e-13
-1.52128e-13
-1.52609e-13
-1.53092e-13
-1.53572e-13
-1.54054e-13
-1.54534e-13
-1.55013e-13
-1.55495e-13
-1.55976e-13
-1.56459e-13
-1.56941e-13
-1.57421e-13
-1.57902e-13
-1.58386e-13
-1.58863e-13
-1.59344e-13
-1.59825e-13
-1.6031e-13
-1.60789e-13
-1.61268e-13
-1.61746e-13
-1.62223e-13
-1.62706e-13
-1.63186e-13
-1.63661e-13
-1.64133e-13
-1.64622e-13
-1.65109e-13
-1.65583e-13
-1.66057e-13
-1.66536e-13
-1.6702e-13
-1.67499e-13
-1.67972e-13
-1.68458e-13
-1.68943e-13
-1.69425e-13
-1.69904e-13
-1.70382e-13
-1.70858e-13
-1.71344e-13
-1.71821e-13
-1.72305e-13
-1.72786e-13
-1.7327e-13
-1.73752e-13
-1.74238e-13
-1.74717e-13
-1.75198e-13
-1.75679e-13
-1.76159e-13
-1.76647e-13
-1.77122e-13
-1.776e-13
-1.78082e-13
-1.7856e-13
-1.79038e-13
-1.79517e-13
-1.79992e-13
-1.80471e-13
-1.80951e-13
-1.81427e-13
-1.81904e-13
-1.82383e-13
-1.82867e-13
-1.83343e-13
-1.8382e-13
-1.84297e-13
-1.84773e-13
-1.85255e-13
-1.85741e-13
-1.86227e-13
-1.86694e-13
-1.87169e-13
-1.87652e-13
-1.88132e-13
-1.88608e-13
-1.89089e-13
-1.8957e-13
-1.90051e-13
-1.90527e-13
-1.91005e-13
-1.91479e-13
-1.91942e-13
-1.92413e-13
-1.92888e-13
-1.93361e-13
-1.93833e-13
-1.94302e-13
-1.94772e-13
-1.95247e-13
-1.95711e-13
-1.96169e-13
-1.96643e-13
-1.97112e-13
-1.97571e-13
-1.98045e-13
-1.9851e-13
-1.98976e-13
-1.99446e-13
-1.9992e-13
-2.00386e-13
-2.00851e-13
-2.01318e-13
-2.01783e-13
-2.02248e-13
-2.02724e-13
-2.03191e-13
-2.03652e-13
-2.04107e-13
-2.0458e-13
-2.05059e-13
-2.05535e-13
-2.05993e-13
-2.06455e-13
-2.06921e-13
-2.07381e-13
-2.07847e-13
-2.08311e-13
-2.08775e-13
-2.09243e-13
-2.09716e-13
-2.10166e-13
-2.10616e-13
-2.11081e-13
-2.11549e-13
-2.12012e-13
-2.12472e-13
-2.12932e-13
-2.13396e-13
-2.13867e-13
-2.14335e-13
-2.14793e-13
-2.15255e-13
-2.15708e-13
-2.1616e-13
-2.16626e-13
-2.17108e-13
-2.17581e-13
-2.18036e-13
-2.18494e-13
-2.18955e-13
-2.1941e-13
-2.1986e-13
-2.20331e-13
-2.20796e-13
-2.21252e-13
-2.21699e-13
-2.2216e-13
-2.22613e-13
-2.23078e-13
-2.23527e-13
-2.23981e-13
-2.24445e-13
-2.24895e-13
-2.25336e-13
-2.25802e-13
-2.26267e-13
-2.26731e-13
-2.27154e-13
-2.27589e-13
-2.28037e-13
-2.285e-13
-2.28962e-13
-2.29392e-13
-2.29835e-13
-2.30283e-13
-2.30709e-13
-2.31131e-13
-2.31572e-13
-2.32028e-13
-2.32483e-13
-2.32947e-13
-2.33396e-13
-2.33834e-13
-2.34287e-13
-2.34737e-13
-2.3517e-13
-2.35609e-13
-2.36048e-13
-2.36484e-13
-2.36937e-13
-2.37384e-13
-2.37808e-13
-2.38248e-13
-2.38699e-13
-2.39119e-13
-2.39587e-13
-2.40018e-13
-2.40431e-13
-2.40867e-13
-2.41327e-13
-2.41771e-13
-2.42215e-13
-2.42634e-13
-2.43049e-13
-2.43458e-13
-2.43908e-13
-2.44343e-13
-2.4478e-13
-2.45208e-13
-2.45632e-13
-2.4608e-13
-2.46509e-13
-2.46913e-13
-2.4735e-13
-2.47792e-13
-2.48201e-13
-2.48606e-13
-2.49008e-13
-2.49445e-13
-2.49872e-13
-2.5029e-13
-2.50707e-13
-2.51127e-13
-2.5154e-13
-2.51946e-13
-2.52367e-13
-2.5277e-13
-2.53168e-13
-2.5357e-13
-2.53985e-13
-2.54388e-13
-2.54808e-13
-2.55216e-13
-2.55594e-13
-2.55974e-13
-2.56351e-13
-2.56756e-13
-2.57164e-13
-2.57553e-13
-2.57928e-13
-2.58316e-13
-2.58715e-13
-2.59091e-13
-2.59469e-13
-2.59869e-13
-2.60271e-13
-2.60653e-13
-2.61037e-13
-2.61435e-13
-2.61809e-13
-2.62188e-13
-2.62595e-13
-2.62971e-13
-2.63314e-13
-2.63713e-13
-2.64118e-13
-2.64493e-13
-2.64868e-13
-2.65225e-13
-2.65594e-13
-2.65978e-13
-2.6635e-13
-2.66716e-13
-2.67087e-13
-2.67457e-13
-2.67805e-13
-2.68174e-13
-2.68537e-13
-2.68905e-13
-2.69261e-13
-2.69633e-13
-2.69998e-13
-2.70353e-13
-2.70701e-13
-2.71075e-13
-2.71438e-13
-2.7179e-13
-2.72162e-13
-2.72518e-13
-2.72878e-13
-2.73254e-13
-2.73613e-13
-2.7396e-13
-2.74329e-13
-2.74696e-13
-2.75074e-13
-2.75445e-13
-2.75805e-13
-2.76191e-13
-2.7655e-13
-2.76924e-13
-2.77302e-13
-2.77685e-13
-2.78046e-13
-2.78417e-13
-2.78777e-13
-2.7913e-13
-2.7953e-13
-2.79908e-13
-2.80275e-13
-2.80636e-13
-2.80987e-13
-2.81346e-13
-2.81726e-13
-2.82115e-13
-2.82477e-13
-2.82844e-13
-2.83184e-13
-2.8355e-13
-2.83914e-13
-2.84273e-13
-2.84621e-13
-2.84953e-13
-2.85309e-13
-2.85674e-13
-2.86039e-13
-2.86408e-13
-2.86766e-13
-2.87119e-13
-2.87465e-13
-2.87777e-13
-2.88107e-13
-2.88451e-13
-2.8881e-13
-2.89123e-13
-2.8945e-13
-2.89792e-13
-2.90117e-13
-2.90428e-13
-2.90738e-13
-2.91023e-13
-2.91379e-13
-2.91701e-13
-2.92008e-13
-2.92324e-13
-2.92649e-13
-2.92958e-13
-2.93295e-13
-2.93603e-13
-2.93911e-13
-2.94222e-13
-2.94537e-13
-2.94847e-13
-2.95118e-13
-2.95408e-13
-2.95725e-13
-2.96022e-13
-2.963e-13
-2.96605e-13
-2.96901e-13
-2.97195e-13
-2.9748e-13
-2.97763e-13
-2.98028e-13
-2.98347e-13
-2.98665e-13
-2.98991e-13
-2.99199e-13
-2.99443e-13
-2.9973e-13
-3.00008e-13
-3.00277e-13
-3.00535e-13
-3.00785e-13
-3.0106e-13
-3.01334e-13
-3.01625e-13
-3.01934e-13
-3.02127e-13
-3.02354e-13
-3.02581e-13
-3.02825e-13
-3.03077e-13
-3.03354e-13
-3.03605e-13
-3.03794e-13
-3.04052e-13
-3.04284e-13
-3.04506e-13
-3.04719e-13
-3.04897e-13
-3.05117e-13
-3.05371e-13
-3.05632e-13
-3.05851e-13
-3.06043e-13
-3.06286e-13
-3.06535e-13
-3.0676e-13
-3.06975e-13
-3.07182e-13
-3.07396e-13
-3.07617e-13
-3.07806e-13
-3.07985e-13
-3.08229e-13
-3.08457e-13
-3.08651e-13
-3.08844e-13
-3.09037e-13
-3.0923e-13
-3.09454e-13
-3.09669e-13
-3.09828e-13
-3.10042e-13
-3.10255e-13
-3.10444e-13
-3.10633e-13
-3.10876e-13
-3.11071e-13
-3.11257e-13
-3.11475e-13
-3.11714e-13
-3.11976e-13
-3.12199e-13
-3.12391e-13
-3.12582e-13
-3.12879e-13
-3.13099e-13
-3.13303e-13
-3.13484e-13
-3.1371e-13
-3.13957e-13
-3.14211e-13
-3.14412e-13
-3.14635e-13
-3.14894e-13
-3.15152e-13
-3.15358e-13
-3.15578e-13
-3.15804e-13
-3.16008e-13
-3.16189e-13
-3.16472e-13
-3.16738e-13
-3.16932e-13
-3.17205e-13
-3.17369e-13
-3.1754e-13
-3.17738e-13
-3.17865e-13
-3.18049e-13
-3.1828e-13
-3.18553e-13
-3.18749e-13
-3.18957e-13
-3.19137e-13
-3.19331e-13
-3.19482e-13
-3.1966e-13
-3.19824e-13
-3.2007e-13
-3.203e-13
-3.20476e-13
-3.20665e-13
-3.20826e-13
-3.21001e-13
-3.21134e-13
-3.21294e-13
-3.21466e-13
-3.21651e-13
-3.21809e-13
-3.22019e-13
-3.2211e-13
-3.22163e-13
-3.22396e-13
-3.22577e-13
-3.22668e-13
-3.22732e-13
-3.22962e-13
-3.23141e-13
-3.23306e-13
-3.23408e-13
-3.23572e-13
-3.2371e-13
-3.23823e-13
-3.23948e-13
-3.23998e-13
-3.24134e-13
-3.24394e-13
-3.24603e-13
-3.24664e-13
-3.2475e-13
-3.24835e-13
-3.25042e-13
-3.2526e-13
-3.25404e-13
-3.25428e-13
-3.25512e-13
-3.25619e-13
-3.25762e-13
-3.25869e-13
-3.25987e-13
-3.26093e-13
-3.26268e-13
-3.26397e-13
-3.26548e-13
-3.26595e-13
-3.26791e-13
-3.26964e-13
-3.27021e-13
-3.27135e-13
-3.27283e-13
-3.27431e-13
-3.27567e-13
-3.27679e-13
-3.27848e-13
-3.27971e-13
-3.2806e-13
-3.28216e-13
-3.28304e-13
-3.28415e-13
-3.28646e-13
-3.2881e-13
-3.28908e-13
-3.29028e-13
-3.29201e-13
-3.29363e-13
-3.29525e-13
-3.296e-13
-3.29685e-13
-3.29845e-13
-3.29951e-13
-3.30068e-13
-3.30205e-13
-3.30415e-13
-3.3052e-13
-3.30582e-13
-3.30821e-13
-3.30853e-13
-3.30976e-13
-3.31079e-13
-3.31213e-13
-3.31407e-13
-3.3157e-13
-3.31641e-13
-3.31732e-13
-3.31853e-13
-3.31964e-13
-3.31984e-13
-3.32093e-13
-3.32153e-13
-3.32203e-13
-3.32292e-13
-3.32489e-13
-3.32587e-13
-3.32606e-13
-3.32665e-13
-3.32723e-13
-3.32762e-13
-3.32829e-13
-3.32897e-13
-3.32983e-13
-3.33021e-13
-3.33155e-13
-3.33288e-13
-3.3325e-13
-3.33306e-13
-3.33457e-13
-3.33513e-13
-3.3355e-13
-3.3355e-13
-3.33476e-13
-3.33532e-13
-3.33624e-13
-3.33642e-13
-3.33587e-13
-3.33605e-13
-3.33624e-13
-3.33533e-13
-3.33587e-13
-3.33641e-13
-3.33695e-13
-3.33695e-13
-3.33731e-13
-3.33731e-13
-3.33695e-13
-3.33766e-13
-3.33818e-13
-3.33713e-13
-3.33731e-13
-3.33644e-13
-3.33609e-13
-3.33592e-13
-3.33695e-13
-3.33712e-13
-3.33712e-13
-3.33729e-13
-3.33662e-13
-3.33594e-13
-3.33628e-13
-3.33628e-13
-3.33578e-13
-3.33578e-13
-3.33578e-13
-3.33479e-13
-3.33528e-13
-3.33593e-13
-3.3361e-13
-3.33594e-13
-3.33561e-13
-3.33593e-13
-3.33577e-13
-3.33488e-13
)
;

boundaryField
{
    INLET
    {
        type            cyclic;
    }
    OUTLET
    {
        type            cyclic;
    }
    CENTER
    {
        type            symmetryPlane;
    }
    WALL
    {
        type            zeroGradient;
    }
    frontAndBackPlanes
    {
        type            empty;
    }
}


// ************************************************************************* //
