/*--------------------------------*- C++ -*----------------------------------*\
| =========                 |                                                 |
| \\      /  F ield         | OpenFOAM: The Open Source CFD Toolbox           |
|  \\    /   O peration     | Version:  v1806                                 |
|   \\  /    A nd           | Web:      www.OpenFOAM.com                      |
|    \\/     M anipulation  |                                                 |
\*---------------------------------------------------------------------------*/
FoamFile
{
    version     2.0;
    format      ascii;
    class       surfaceScalarField;
    location    "10000";
    object      phi;
}
// * * * * * * * * * * * * * * * * * * * * * * * * * * * * * * * * * * * * * //

dimensions      [0 3 -1 0 0 0 0];
oriented        oriented;


internalField   nonuniform List<scalar> 
1024
(
-3.54044e-18
-3.5402e-18
-3.54025e-18
-3.54008e-18
-3.54013e-18
-3.54001e-18
-3.54005e-18
-3.53996e-18
-3.54001e-18
-3.53995e-18
-3.53998e-18
-3.53993e-18
-3.53995e-18
-3.53987e-18
-3.53988e-18
-3.53984e-18
-3.53985e-18
-3.53982e-18
-3.53983e-18
-3.53982e-18
-3.53982e-18
-3.53982e-18
-3.53982e-18
-3.53981e-18
-3.53985e-18
-3.53984e-18
-3.53985e-18
-3.53983e-18
-3.53985e-18
-3.53982e-18
-3.53983e-18
-3.53982e-18
-3.53979e-18
-3.5398e-18
-3.5398e-18
-3.53979e-18
-3.53978e-18
-3.53978e-18
-3.53978e-18
-3.53976e-18
-3.53974e-18
-3.53975e-18
-3.53969e-18
-3.53969e-18
-3.53966e-18
-3.53967e-18
-3.53959e-18
-3.53958e-18
-3.5396e-18
-3.53958e-18
-3.53958e-18
-3.5396e-18
-3.53961e-18
-3.53955e-18
-3.53955e-18
-3.53957e-18
-3.53958e-18
-3.53953e-18
-3.53952e-18
-3.53951e-18
-3.53949e-18
-3.5395e-18
-3.53946e-18
-3.53945e-18
-3.53941e-18
-3.53943e-18
-3.53942e-18
-3.53941e-18
-3.53933e-18
-3.53927e-18
-3.53919e-18
-3.53918e-18
-3.53919e-18
-3.53921e-18
-3.53922e-18
-3.53924e-18
-3.53926e-18
-3.53929e-18
-3.5393e-18
-3.53928e-18
-3.5393e-18
-3.5392e-18
-3.53915e-18
-3.53913e-18
-3.53913e-18
-3.53915e-18
-3.53914e-18
-3.53917e-18
-3.53916e-18
-3.53918e-18
-3.53917e-18
-3.53906e-18
-3.53907e-18
-3.53905e-18
-3.53903e-18
-3.539e-18
-3.53902e-18
-3.53891e-18
-3.53878e-18
-3.53877e-18
-3.53884e-18
-3.53885e-18
-3.53884e-18
-3.53883e-18
-3.53885e-18
-3.53887e-18
-3.53877e-18
-3.53879e-18
-3.53877e-18
-3.53876e-18
-3.53877e-18
-3.53878e-18
-3.53878e-18
-3.53879e-18
-3.5389e-18
-3.53887e-18
-3.53887e-18
-3.53881e-18
-3.53873e-18
-3.53863e-18
-3.53867e-18
-3.53865e-18
-3.53851e-18
-3.53852e-18
-3.53854e-18
-3.53852e-18
-3.53837e-18
-3.53833e-18
-3.53829e-18
-3.5382e-18
-3.53824e-18
-3.53825e-18
-3.53828e-18
-3.53823e-18
-3.53823e-18
-3.5382e-18
-3.53819e-18
-3.53817e-18
-3.53817e-18
-3.53816e-18
-3.53815e-18
-3.53814e-18
-3.53815e-18
-3.538e-18
-3.53798e-18
-3.53801e-18
-3.53801e-18
-3.5379e-18
-3.53785e-18
-3.53776e-18
-3.53779e-18
-3.53784e-18
-3.53782e-18
-3.53787e-18
-3.53791e-18
-3.53796e-18
-3.53803e-18
-3.53804e-18
-3.5382e-18
-3.53825e-18
-3.53823e-18
-3.53828e-18
-3.53824e-18
-3.5382e-18
-3.53825e-18
-3.53824e-18
-3.53818e-18
-3.53819e-18
-3.5382e-18
-3.53805e-18
-3.5381e-18
-3.53815e-18
-3.5381e-18
-3.53796e-18
-3.53782e-18
-3.53772e-18
-3.53769e-18
-3.53778e-18
-3.53772e-18
-3.53772e-18
-3.53773e-18
-3.53777e-18
-3.53776e-18
-3.53775e-18
-3.53788e-18
-3.53785e-18
-3.53797e-18
-3.53801e-18
-3.53797e-18
-3.53797e-18
-3.53798e-18
-3.53799e-18
-3.53794e-18
-3.53788e-18
-3.53784e-18
-3.53804e-18
-3.53803e-18
-3.53811e-18
-3.53819e-18
-3.5382e-18
-3.5381e-18
-3.53802e-18
-3.53807e-18
-3.53805e-18
-3.53807e-18
-3.53794e-18
-3.53787e-18
-3.53789e-18
-3.53779e-18
-3.5378e-18
-3.53769e-18
-3.53776e-18
-3.53768e-18
-3.53754e-18
-3.53751e-18
-3.53751e-18
-3.5375e-18
-3.53753e-18
-3.53752e-18
-3.5375e-18
-3.53732e-18
-3.53735e-18
-3.53742e-18
-3.5374e-18
-3.53713e-18
-3.5372e-18
-3.53715e-18
-3.53739e-18
-3.53712e-18
-3.53704e-18
-3.53703e-18
-3.53707e-18
-3.53694e-18
-3.53695e-18
-3.53703e-18
-3.53667e-18
-3.53665e-18
-3.53665e-18
-3.53673e-18
-3.53675e-18
-3.53645e-18
-3.53655e-18
-3.53665e-18
-3.53668e-18
-3.53716e-18
-3.53719e-18
-3.5372e-18
-3.53726e-18
-3.53722e-18
-3.53771e-18
-3.53745e-18
-3.53745e-18
-3.53748e-18
-3.53793e-18
-3.53795e-18
-3.53777e-18
-3.53764e-18
-3.53758e-18
-3.5376e-18
-3.53745e-18
-3.53717e-18
-3.53713e-18
-3.53657e-18
-3.53635e-18
-3.53656e-18
-3.53656e-18
-3.53655e-18
-3.53656e-18
-3.53653e-18
-3.53602e-18
-3.53598e-18
-3.53599e-18
-3.53599e-18
-3.53617e-18
-3.5356e-18
-3.53561e-18
-3.53562e-18
-3.53501e-18
-3.53488e-18
-3.53436e-18
-3.53401e-18
-3.53362e-18
-3.53377e-18
-3.53332e-18
-3.53351e-18
-3.53297e-18
-3.53272e-18
-3.53258e-18
-3.53238e-18
-3.53205e-18
-3.53181e-18
-3.53188e-18
-3.53207e-18
-3.53226e-18
-3.53235e-18
-3.53251e-18
-3.53231e-18
-3.53232e-18
-3.53211e-18
-3.53228e-18
-3.53209e-18
-3.53214e-18
-3.53217e-18
-3.53216e-18
-3.53208e-18
-3.53191e-18
-3.53185e-18
-3.53129e-18
-3.53116e-18
-3.53099e-18
-3.53092e-18
-3.5307e-18
-3.5307e-18
-3.53071e-18
-3.53071e-18
-3.53075e-18
-3.53076e-18
-3.53074e-18
-3.53078e-18
-3.53135e-18
-3.53201e-18
-3.53156e-18
-3.53136e-18
-3.53136e-18
-3.53132e-18
-3.53121e-18
-3.53111e-18
-3.53131e-18
-3.53117e-18
-3.53081e-18
-3.53099e-18
-3.53106e-18
-3.5305e-18
-3.5306e-18
-3.53056e-18
-3.52979e-18
-3.5305e-18
-3.53041e-18
-3.53043e-18
-3.5293e-18
-3.52928e-18
-3.52921e-18
-3.52915e-18
-3.52886e-18
-3.52861e-18
-3.52838e-18
-3.52782e-18
-3.52743e-18
-3.52643e-18
-3.52743e-18
-3.52716e-18
-3.52835e-18
-3.52924e-18
-3.5291e-18
-3.52881e-18
-3.52878e-18
-3.52861e-18
-3.52786e-18
-3.52826e-18
-3.52841e-18
-3.52881e-18
-3.52862e-18
-3.52828e-18
-3.52809e-18
-3.52794e-18
-3.52784e-18
-3.52774e-18
-3.52697e-18
-3.52677e-18
-3.52785e-18
-3.52792e-18
-3.52799e-18
-3.52682e-18
-3.52641e-18
-3.52634e-18
-3.52628e-18
-3.52672e-18
-3.52647e-18
-3.52653e-18
-3.52642e-18
-3.52684e-18
-3.52674e-18
-3.52663e-18
-3.5265e-18
-3.52676e-18
-3.52659e-18
-3.52512e-18
-3.5248e-18
-3.52443e-18
-3.52426e-18
-3.52438e-18
-3.52278e-18
-3.52306e-18
-3.52337e-18
-3.52327e-18
-3.52186e-18
-3.52013e-18
-3.52054e-18
-3.52064e-18
-3.52049e-18
-3.52148e-18
-3.52175e-18
-3.52196e-18
-3.52216e-18
-3.522e-18
-3.52221e-18
-3.52137e-18
-3.52096e-18
-3.52115e-18
-3.52146e-18
-3.52172e-18
-3.52189e-18
-3.52127e-18
-3.52158e-18
-3.52196e-18
-3.52163e-18
-3.522e-18
-3.52237e-18
-3.52251e-18
-3.52264e-18
-3.52305e-18
-3.52082e-18
-3.52083e-18
-3.52125e-18
-3.52146e-18
-3.52158e-18
-3.51991e-18
-3.51927e-18
-3.52004e-18
-3.52023e-18
-3.52019e-18
-3.51965e-18
-3.52005e-18
-3.51955e-18
-3.51886e-18
-3.51723e-18
-3.51662e-18
-3.51539e-18
-3.51515e-18
-3.51479e-18
-3.5145e-18
-3.51369e-18
-3.51622e-18
-3.51671e-18
-3.51646e-18
-3.5155e-18
-3.51803e-18
-3.51823e-18
-3.51878e-18
-3.5191e-18
-3.51812e-18
-3.51852e-18
-3.5187e-18
-3.51876e-18
-3.51713e-18
-3.51711e-18
-3.51942e-18
-3.51959e-18
-3.51707e-18
-3.51392e-18
-3.51412e-18
-3.51452e-18
-3.51179e-18
-3.51182e-18
-3.51226e-18
-3.51243e-18
-3.5123e-18
-3.51211e-18
-3.50974e-18
-3.50904e-18
-3.50686e-18
-3.50713e-18
-3.5029e-18
-3.50367e-18
-3.5034e-18
-3.50488e-18
-3.50438e-18
-3.50502e-18
-3.50565e-18
-3.50557e-18
-3.50854e-18
-3.50814e-18
-3.50759e-18
-3.50987e-18
-3.50958e-18
-3.50934e-18
-3.50926e-18
-3.50782e-18
-3.50823e-18
-3.5081e-18
-3.50759e-18
-3.50712e-18
-3.5036e-18
-3.50389e-18
-3.50319e-18
-3.50288e-18
-3.50242e-18
-3.49871e-18
-3.49816e-18
-3.49854e-18
-3.50258e-18
-3.49915e-18
-3.49824e-18
-3.49774e-18
-3.49704e-18
-3.49835e-18
-3.49735e-18
-3.49889e-18
-3.4985e-18
-3.49992e-18
-3.50263e-18
-3.50679e-18
-3.5026e-18
-3.50361e-18
-3.50246e-18
-3.5004e-18
-3.50201e-18
-3.50325e-18
-3.50136e-18
-3.50289e-18
-3.50342e-18
-3.5e-18
-3.49999e-18
-3.50163e-18
-3.49654e-18
-3.49797e-18
-3.49379e-18
-3.4939e-18
-3.49367e-18
-3.49205e-18
-3.49214e-18
-3.49237e-18
-3.49277e-18
-3.49336e-18
-3.48895e-18
-3.49085e-18
-3.49197e-18
-3.49281e-18
-3.4862e-18
-3.48559e-18
-3.4869e-18
-3.49152e-18
-3.49238e-18
-3.49262e-18
-3.49688e-18
-3.49259e-18
-3.49326e-18
-3.49361e-18
-3.49367e-18
-3.49377e-18
-3.49846e-18
-3.49824e-18
-3.49469e-18
-3.49283e-18
-3.49167e-18
-3.49053e-18
-3.48562e-18
-3.48271e-18
-3.47874e-18
-3.48041e-18
-3.48084e-18
-3.47897e-18
-3.47811e-18
-3.47395e-18
-3.46674e-18
-3.46335e-18
-3.46263e-18
-3.4652e-18
-3.46502e-18
-3.46468e-18
-3.46427e-18
-3.46321e-18
-3.45694e-18
-3.45549e-18
-3.4544e-18
-3.45601e-18
-3.44893e-18
-3.44851e-18
-3.44647e-18
-3.44486e-18
-3.44323e-18
-3.43837e-18
-3.43676e-18
-3.43582e-18
-3.43296e-18
-3.43267e-18
-3.43145e-18
-3.43864e-18
-3.44139e-18
-3.44388e-18
-3.43875e-18
-3.43644e-18
-3.44118e-18
-3.43903e-18
-3.43721e-18
-3.43737e-18
-3.43827e-18
-3.42855e-18
-3.41845e-18
-3.41306e-18
-3.40398e-18
-3.40281e-18
-3.40151e-18
-3.40132e-18
-3.40922e-18
-3.41332e-18
-3.41423e-18
-3.41615e-18
-3.41776e-18
-3.4089e-18
-3.41128e-18
-3.41081e-18
-3.40192e-18
-3.39596e-18
-3.40366e-18
-3.39533e-18
-3.39787e-18
-3.39512e-18
-3.39067e-18
-3.37931e-18
-3.37632e-18
-3.37874e-18
-3.38775e-18
-3.3911e-18
-3.3902e-18
-3.3675e-18
-3.36771e-18
-3.36982e-18
-3.36903e-18
-3.36807e-18
-3.36295e-18
-3.37095e-18
-3.37478e-18
-3.37671e-18
-3.37737e-18
-3.38387e-18
-3.38437e-18
-3.3858e-18
-3.37813e-18
-3.37799e-18
-3.37693e-18
-3.37521e-18
-3.37265e-18
-3.37077e-18
-3.36749e-18
-3.37034e-18
-3.37245e-18
-3.36953e-18
-3.37076e-18
-3.36353e-18
-3.36484e-18
-3.36333e-18
-3.36453e-18
-3.37131e-18
-3.37105e-18
-3.37042e-18
-3.36126e-18
-3.36341e-18
-3.36405e-18
-3.36466e-18
-3.36632e-18
-3.35096e-18
-3.35198e-18
-3.35144e-18
-3.34159e-18
-3.33042e-18
-3.33127e-18
-3.32213e-18
-3.31617e-18
-3.31804e-18
-3.30811e-18
-3.30411e-18
-3.30269e-18
-3.30357e-18
-3.29102e-18
-3.28039e-18
-3.27828e-18
-3.28284e-18
-3.27932e-18
-3.27057e-18
-3.27529e-18
-3.27408e-18
-3.27254e-18
-3.27125e-18
-3.27158e-18
-3.26581e-18
-3.26179e-18
-3.26053e-18
-3.26527e-18
-3.26361e-18
-3.25809e-18
-3.2569e-18
-3.25499e-18
-3.2513e-18
-3.23858e-18
-3.2339e-18
-3.22884e-18
-3.2156e-18
-3.21052e-18
-3.21224e-18
-3.19997e-18
-3.19607e-18
-3.19119e-18
-3.17791e-18
-3.1713e-18
-3.15254e-18
-3.14858e-18
-3.14634e-18
-3.13682e-18
-3.14004e-18
-3.12035e-18
-3.1166e-18
-3.11392e-18
-3.11934e-18
-3.1171e-18
-3.11622e-18
-3.11256e-18
-3.08623e-18
-3.08924e-18
-3.09023e-18
-3.09076e-18
-3.09066e-18
-3.09567e-18
-3.07638e-18
-3.0629e-18
-3.07083e-18
-3.07006e-18
-3.07564e-18
-3.07986e-18
-3.07908e-18
-3.07852e-18
-3.07728e-18
-3.07537e-18
-3.06305e-18
-3.0527e-18
-3.04262e-18
-3.04633e-18
-3.04733e-18
-3.05141e-18
-3.05415e-18
-3.07346e-18
-3.05449e-18
-3.04946e-18
-3.05302e-18
-3.05648e-18
-3.05573e-18
-3.05677e-18
-3.05501e-18
-3.05471e-18
-3.06018e-18
-3.06247e-18
-3.01807e-18
-3.0205e-18
-3.02419e-18
-3.00966e-18
-2.99358e-18
-2.99681e-18
-2.97836e-18
-2.99074e-18
-2.98513e-18
-2.97977e-18
-2.97498e-18
-2.98145e-18
-2.99316e-18
-2.99307e-18
-2.97904e-18
-2.98242e-18
-2.98284e-18
-2.95944e-18
-2.94815e-18
-2.96067e-18
-2.95347e-18
-2.94295e-18
-2.94154e-18
-2.92615e-18
-2.93151e-18
-2.93472e-18
-2.99839e-18
-2.99286e-18
-2.98185e-18
-2.98108e-18
-2.97913e-18
-2.9744e-18
-2.96946e-18
-2.97974e-18
-2.97077e-18
-2.9608e-18
-2.95511e-18
-3.01052e-18
-2.99349e-18
-3.0034e-18
-3.00231e-18
-3.01238e-18
-2.97536e-18
-2.97341e-18
-3.00355e-18
-3.00066e-18
-3.00648e-18
-3.00671e-18
-3.00345e-18
-3.00256e-18
-2.97738e-18
-2.95224e-18
-2.93015e-18
-2.92374e-18
-2.91683e-18
-2.88981e-18
-2.89729e-18
-2.89075e-18
-2.8828e-18
-2.87492e-18
-2.88543e-18
-2.89546e-18
-2.89226e-18
-2.88474e-18
-2.86053e-18
-2.86392e-18
-2.87523e-18
-2.88051e-18
-2.88516e-18
-2.88865e-18
-2.85826e-18
-2.86503e-18
-2.88973e-18
-2.85392e-18
-2.85118e-18
-2.85013e-18
-2.84397e-18
-2.78914e-18
-2.78496e-18
-2.76775e-18
-2.74455e-18
-2.72787e-18
-2.66351e-18
-2.67441e-18
-2.68549e-18
-2.69559e-18
-2.63008e-18
-2.62262e-18
-2.63337e-18
-2.64632e-18
-2.63941e-18
-2.61094e-18
-2.57118e-18
-2.57783e-18
-2.56712e-18
-2.57239e-18
-2.56255e-18
-2.55196e-18
-2.55054e-18
-2.55288e-18
-2.55747e-18
-2.5577e-18
-2.49154e-18
-2.49072e-18
-2.54141e-18
-2.54545e-18
-2.56458e-18
-2.56751e-18
-2.57778e-18
-2.57488e-18
-2.51889e-18
-2.49391e-18
-2.41393e-18
-2.40508e-18
-2.39752e-18
-2.38813e-18
-2.41066e-18
-2.38946e-18
-2.32353e-18
-2.32618e-18
-2.20627e-18
-2.17447e-18
-2.16216e-18
-2.17999e-18
-2.16492e-18
-2.17763e-18
-2.16409e-18
-2.12568e-18
-2.09324e-18
-2.11841e-18
-2.13091e-18
-2.12306e-18
-2.12145e-18
-2.09829e-18
-2.05271e-18
-2.02832e-18
-2.04928e-18
-2.06632e-18
-2.0116e-18
-2.02874e-18
-2.03077e-18
-2.01203e-18
-1.98245e-18
-1.9823e-18
-1.96801e-18
-1.86244e-18
-1.86006e-18
-1.72875e-18
-1.68808e-18
-1.68417e-18
-1.73197e-18
-1.75863e-18
-1.71019e-18
-1.63806e-18
-1.64202e-18
-1.69938e-18
-1.74962e-18
-1.72923e-18
-1.71104e-18
-1.71595e-18
-1.74093e-18
-1.73475e-18
-1.74289e-18
-1.72262e-18
-1.75387e-18
-1.73962e-18
-1.82841e-18
-1.76749e-18
-1.74069e-18
-1.79355e-18
-1.76984e-18
-1.75283e-18
-1.74507e-18
-1.744e-18
-1.75201e-18
-1.77653e-18
-1.80235e-18
-1.77721e-18
-1.70141e-18
-1.72047e-18
-1.61237e-18
-1.58105e-18
-1.57082e-18
-1.59697e-18
-1.58871e-18
-1.601e-18
-1.59491e-18
-1.59398e-18
-1.63352e-18
-1.61936e-18
-1.51143e-18
-1.5353e-18
-1.52224e-18
-1.48902e-18
-1.48046e-18
-1.48089e-18
-1.46236e-18
-1.33907e-18
-1.39367e-18
-1.34235e-18
-1.34009e-18
-1.26343e-18
-1.28254e-18
-1.30401e-18
-1.37518e-18
-1.35453e-18
-1.33125e-18
-1.35419e-18
-1.46118e-18
-1.39765e-18
-1.39177e-18
-1.40107e-18
-1.37049e-18
-1.32237e-18
-1.4347e-18
-1.44715e-18
-1.45757e-18
-1.47721e-18
-1.48229e-18
-1.45899e-18
-1.45654e-18
-1.3682e-18
-1.34613e-18
-1.25126e-18
-1.20765e-18
-1.34263e-18
-1.23869e-18
-1.2429e-18
-1.23975e-18
-1.28274e-18
-1.32136e-18
-1.37234e-18
-1.41795e-18
-1.32552e-18
-1.314e-18
-1.3357e-18
-1.20457e-18
-1.21666e-18
-1.2551e-18
-1.0183e-18
-9.77227e-19
-9.57829e-19
-9.83836e-19
-9.62629e-19
-9.59473e-19
-9.45798e-19
-8.63311e-19
-8.27724e-19
-8.63686e-19
-9.17637e-19
-8.87215e-19
-7.39508e-19
-6.08831e-19
-5.36653e-19
-5.12949e-19
-4.76881e-19
-4.50661e-19
-4.82241e-19
-4.74736e-19
-3.15984e-19
-3.2919e-19
-3.61834e-19
-2.58052e-19
-2.58052e-19
-2.79461e-19
-1.52811e-19
-1.24338e-19
-1.34581e-19
-1.50498e-19
-1.72506e-19
-4.61351e-20
-7.66185e-20
-9.2741e-20
)
;

boundaryField
{
    INLET
    {
        type            cyclic;
        value           nonuniform List<scalar> 
1025
(
-3.12433e-09
-9.42678e-09
-1.58133e-08
-2.22839e-08
-2.88397e-08
-3.54807e-08
-4.22066e-08
-4.9015e-08
-5.59065e-08
-6.28739e-08
-6.99203e-08
-7.70288e-08
-8.41961e-08
-9.14067e-08
-9.86416e-08
-1.05874e-07
-1.13078e-07
-1.20217e-07
-1.2725e-07
-1.34144e-07
-1.40856e-07
-1.4737e-07
-1.53653e-07
-1.59701e-07
-1.655e-07
-1.71059e-07
-1.76359e-07
-1.81466e-07
-1.86312e-07
-1.90993e-07
-1.95484e-07
-1.99753e-07
-2.03951e-07
-2.07958e-07
-2.11831e-07
-2.15584e-07
-2.19228e-07
-2.22822e-07
-2.2633e-07
-2.29709e-07
-2.33068e-07
-2.36363e-07
-2.39602e-07
-2.42791e-07
-2.45934e-07
-2.49088e-07
-2.52155e-07
-2.5519e-07
-2.58249e-07
-2.61283e-07
-2.64296e-07
-2.67235e-07
-2.70267e-07
-2.73174e-07
-2.76179e-07
-2.79175e-07
-2.82107e-07
-2.85032e-07
-2.88008e-07
-2.90981e-07
-2.93952e-07
-2.96922e-07
-2.99892e-07
-3.02863e-07
-3.05896e-07
-3.08874e-07
-3.11915e-07
-3.14902e-07
-3.18016e-07
-3.21016e-07
-3.24146e-07
-3.27162e-07
-3.3031e-07
-3.33469e-07
-3.36515e-07
-3.39758e-07
-3.4289e-07
-3.46159e-07
-3.49317e-07
-3.52614e-07
-3.558e-07
-3.59191e-07
-3.62407e-07
-3.65831e-07
-3.69143e-07
-3.72537e-07
-3.75949e-07
-3.79379e-07
-3.82894e-07
-3.86362e-07
-3.8985e-07
-3.93424e-07
-3.97018e-07
-4.00634e-07
-4.04272e-07
-4.08e-07
-4.11614e-07
-4.15386e-07
-4.19183e-07
-4.22934e-07
-4.26778e-07
-4.30647e-07
-4.3461e-07
-4.38459e-07
-4.42545e-07
-4.46445e-07
-4.50513e-07
-4.5468e-07
-4.58731e-07
-4.62882e-07
-4.67133e-07
-4.71267e-07
-4.75649e-07
-4.79915e-07
-4.84284e-07
-4.88683e-07
-4.93112e-07
-4.97573e-07
-5.0214e-07
-5.06664e-07
-5.11295e-07
-5.15959e-07
-5.20657e-07
-5.25387e-07
-5.30229e-07
-5.35029e-07
-5.39862e-07
-5.44808e-07
-5.49869e-07
-5.54809e-07
-5.59863e-07
-5.65033e-07
-5.70241e-07
-5.75408e-07
-5.80692e-07
-5.86014e-07
-5.91376e-07
-5.96858e-07
-6.02299e-07
-6.07862e-07
-6.13383e-07
-6.19111e-07
-6.24797e-07
-6.30526e-07
-6.36381e-07
-6.42195e-07
-6.48136e-07
-6.54121e-07
-6.60236e-07
-6.66225e-07
-6.7243e-07
-6.78681e-07
-6.84979e-07
-6.91324e-07
-6.97715e-07
-7.04154e-07
-7.10729e-07
-7.17264e-07
-7.24026e-07
-7.30658e-07
-7.3752e-07
-7.44434e-07
-7.51307e-07
-7.58232e-07
-7.65391e-07
-7.72511e-07
-7.79684e-07
-7.87003e-07
-7.94377e-07
-8.01333e-07
-8.09191e-07
-8.17681e-07
-8.24326e-07
-8.31975e-07
-8.3968e-07
-8.4841e-07
-8.55263e-07
-8.64116e-07
-8.72056e-07
-8.80054e-07
-8.8811e-07
-8.96223e-07
-9.05396e-07
-9.13635e-07
-9.21933e-07
-9.31305e-07
-9.3973e-07
-9.48214e-07
-9.56759e-07
-9.66398e-07
-9.76111e-07
-9.8381e-07
-9.94704e-07
-1.00253e-06
-1.01357e-06
-1.02151e-06
-1.03271e-06
-1.04078e-06
-1.05213e-06
-1.06141e-06
-1.07075e-06
-1.08124e-06
-1.09182e-06
-1.10247e-06
-1.11209e-06
-1.12289e-06
-1.13377e-06
-1.14361e-06
-1.15577e-06
-1.16576e-06
-1.17695e-06
-1.18822e-06
-1.19843e-06
-1.21101e-06
-1.22253e-06
-1.23296e-06
-1.24464e-06
-1.25757e-06
-1.26824e-06
-1.28135e-06
-1.29337e-06
-1.30427e-06
-1.31766e-06
-1.32993e-06
-1.34229e-06
-1.35596e-06
-1.36726e-06
-1.38112e-06
-1.39383e-06
-1.40787e-06
-1.41952e-06
-1.43375e-06
-1.44809e-06
-1.46126e-06
-1.47452e-06
-1.48787e-06
-1.50259e-06
-1.51742e-06
-1.53106e-06
-1.5461e-06
-1.55993e-06
-1.57517e-06
-1.58919e-06
-1.60596e-06
-1.61885e-06
-1.63585e-06
-1.65027e-06
-1.66614e-06
-1.68212e-06
-1.69684e-06
-1.71441e-06
-1.72934e-06
-1.74576e-06
-1.76228e-06
-1.78033e-06
-1.79568e-06
-1.81254e-06
-1.82952e-06
-1.84662e-06
-1.86382e-06
-1.88114e-06
-1.90003e-06
-1.91759e-06
-1.93527e-06
-1.95307e-06
-1.97098e-06
-1.99049e-06
-2.00865e-06
-2.02693e-06
-2.04682e-06
-2.06535e-06
-2.08551e-06
-2.10428e-06
-2.12317e-06
-2.14372e-06
-2.16441e-06
-2.18369e-06
-2.20465e-06
-2.22575e-06
-2.24541e-06
-2.26678e-06
-2.28829e-06
-2.30994e-06
-2.33014e-06
-2.35206e-06
-2.37413e-06
-2.39634e-06
-2.4187e-06
-2.4412e-06
-2.46385e-06
-2.48664e-06
-2.50958e-06
-2.53266e-06
-2.55757e-06
-2.57928e-06
-2.6045e-06
-2.62819e-06
-2.65202e-06
-2.67772e-06
-2.70187e-06
-2.72617e-06
-2.75235e-06
-2.77696e-06
-2.80348e-06
-2.82841e-06
-2.85525e-06
-2.8805e-06
-2.90768e-06
-2.93503e-06
-2.96076e-06
-2.98845e-06
-3.01632e-06
-3.04437e-06
-3.07075e-06
-3.10098e-06
-3.1277e-06
-3.15644e-06
-3.18723e-06
-3.21446e-06
-3.24563e-06
-3.2732e-06
-3.30474e-06
-3.33457e-06
-3.36458e-06
-3.39478e-06
-3.42709e-06
-3.45766e-06
-3.48842e-06
-3.52132e-06
-3.55443e-06
-3.58378e-06
-3.61926e-06
-3.65099e-06
-3.68289e-06
-3.717e-06
-3.75131e-06
-3.78584e-06
-3.81853e-06
-3.85552e-06
-3.88862e-06
-3.92398e-06
-3.95955e-06
-3.99533e-06
-4.03133e-06
-4.06754e-06
-4.10397e-06
-4.14273e-06
-4.17748e-06
-4.21669e-06
-4.254e-06
-4.29368e-06
-4.33144e-06
-4.36942e-06
-4.4098e-06
-4.44823e-06
-4.48908e-06
-4.53018e-06
-4.56931e-06
-4.61088e-06
-4.65047e-06
-4.69477e-06
-4.73483e-06
-4.77738e-06
-4.82018e-06
-4.86323e-06
-4.90654e-06
-4.95009e-06
-4.99389e-06
-5.04027e-06
-5.08226e-06
-5.12917e-06
-5.174e-06
-5.22145e-06
-5.26681e-06
-5.31243e-06
-5.36069e-06
-5.40683e-06
-5.45564e-06
-5.50474e-06
-5.55169e-06
-5.60134e-06
-5.65128e-06
-5.7015e-06
-5.75201e-06
-5.80032e-06
-5.85389e-06
-5.90526e-06
-5.95693e-06
-6.00889e-06
-6.06113e-06
-6.11367e-06
-6.16906e-06
-6.2222e-06
-6.27821e-06
-6.33195e-06
-6.38859e-06
-6.44294e-06
-6.5002e-06
-6.55517e-06
-6.6157e-06
-6.67129e-06
-6.72984e-06
-6.78872e-06
-6.84792e-06
-6.90746e-06
-6.96732e-06
-7.02751e-06
-7.08803e-06
-7.15161e-06
-7.21282e-06
-7.27435e-06
-7.33898e-06
-7.4012e-06
-7.46655e-06
-7.53225e-06
-7.59552e-06
-7.66193e-06
-7.72589e-06
-7.79586e-06
-7.86053e-06
-7.93127e-06
-7.99665e-06
-8.06815e-06
-8.13715e-06
-8.20361e-06
-8.27918e-06
-8.34638e-06
-8.41981e-06
-8.49365e-06
-8.56493e-06
-8.63658e-06
-8.7116e-06
-8.78703e-06
-8.86286e-06
-8.93911e-06
-9.01273e-06
-9.09283e-06
-9.16724e-06
-9.24819e-06
-9.32649e-06
-9.40521e-06
-9.48745e-06
-9.5639e-06
-9.65013e-06
-9.73055e-06
-9.81139e-06
-9.89582e-06
-9.9807e-06
-1.00628e-05
-1.01518e-05
-1.02348e-05
-1.03247e-05
-1.04086e-05
-1.04995e-05
-1.05875e-05
-1.0676e-05
-1.0765e-05
-1.08577e-05
-1.0951e-05
-1.10414e-05
-1.11356e-05
-1.12269e-05
-1.13221e-05
-1.14211e-05
-1.15139e-05
-1.16106e-05
-1.17078e-05
-1.18054e-05
-1.1907e-05
-1.20057e-05
-1.21049e-05
-1.22081e-05
-1.23118e-05
-1.24126e-05
-1.25174e-05
-1.26192e-05
-1.27285e-05
-1.28314e-05
-1.29419e-05
-1.30458e-05
-1.31574e-05
-1.3266e-05
-1.33752e-05
-1.34885e-05
-1.36024e-05
-1.37132e-05
-1.38246e-05
-1.39439e-05
-1.40565e-05
-1.4177e-05
-1.42907e-05
-1.44087e-05
-1.4531e-05
-1.46502e-05
-1.47701e-05
-1.48942e-05
-1.50153e-05
-1.51407e-05
-1.52629e-05
-1.53935e-05
-1.55169e-05
-1.56449e-05
-1.57774e-05
-1.59028e-05
-1.60366e-05
-1.61671e-05
-1.63022e-05
-1.64341e-05
-1.65666e-05
-1.67077e-05
-1.68416e-05
-1.69801e-05
-1.71193e-05
-1.72592e-05
-1.73998e-05
-1.75452e-05
-1.76872e-05
-1.78299e-05
-1.79773e-05
-1.81256e-05
-1.82704e-05
-1.84201e-05
-1.85747e-05
-1.87217e-05
-1.88736e-05
-1.90304e-05
-1.91838e-05
-1.93379e-05
-1.94971e-05
-1.9657e-05
-1.98134e-05
-1.99749e-05
-2.01371e-05
-2.03002e-05
-2.04683e-05
-2.06286e-05
-2.07984e-05
-2.0969e-05
-2.11361e-05
-2.13083e-05
-2.1477e-05
-2.16553e-05
-2.18257e-05
-2.20057e-05
-2.21822e-05
-2.23595e-05
-2.25376e-05
-2.27256e-05
-2.2901e-05
-2.30908e-05
-2.3277e-05
-2.34457e-05
-2.36612e-05
-2.38316e-05
-2.40491e-05
-2.42213e-05
-2.43942e-05
-2.46146e-05
-2.48362e-05
-2.50118e-05
-2.51882e-05
-2.54127e-05
-2.56383e-05
-2.58174e-05
-2.60451e-05
-2.6226e-05
-2.64076e-05
-2.66866e-05
-2.68702e-05
-2.70545e-05
-2.72884e-05
-2.75235e-05
-2.77597e-05
-2.79479e-05
-2.81862e-05
-2.83762e-05
-2.86166e-05
-2.88581e-05
-2.91009e-05
-2.92947e-05
-2.95396e-05
-2.97856e-05
-3.00329e-05
-3.02305e-05
-3.04798e-05
-3.07304e-05
-3.09821e-05
-3.12351e-05
-3.14893e-05
-3.16928e-05
-3.19491e-05
-3.22587e-05
-3.24654e-05
-3.27253e-05
-3.29864e-05
-3.32487e-05
-3.35123e-05
-3.3777e-05
-3.39896e-05
-3.431e-05
-3.45784e-05
-3.4848e-05
-3.51189e-05
-3.53909e-05
-3.56642e-05
-3.59933e-05
-3.62146e-05
-3.65464e-05
-3.67699e-05
-3.71045e-05
-3.73855e-05
-3.76676e-05
-3.79511e-05
-3.82916e-05
-3.85217e-05
-3.88651e-05
-3.92101e-05
-3.94438e-05
-3.97917e-05
-4.00844e-05
-4.04354e-05
-4.06736e-05
-4.10275e-05
-4.13831e-05
-4.16826e-05
-4.19834e-05
-4.23436e-05
-4.26471e-05
-4.2952e-05
-4.33167e-05
-4.36832e-05
-4.39925e-05
-4.43029e-05
-4.4674e-05
-4.50469e-05
-4.53618e-05
-4.57378e-05
-4.60555e-05
-4.64348e-05
-4.68158e-05
-4.71379e-05
-4.75221e-05
-4.78471e-05
-4.82345e-05
-4.86236e-05
-4.90146e-05
-4.93456e-05
-4.98017e-05
-5.01359e-05
-5.04712e-05
-5.09329e-05
-5.12715e-05
-5.17371e-05
-5.20789e-05
-5.24851e-05
-5.28932e-05
-5.3303e-05
-5.37147e-05
-5.41281e-05
-5.44791e-05
-5.49601e-05
-5.53789e-05
-5.57995e-05
-5.62219e-05
-5.6646e-05
-5.7072e-05
-5.74997e-05
-5.79949e-05
-5.83607e-05
-5.88599e-05
-5.92952e-05
-5.97323e-05
-6.01712e-05
-6.06787e-05
-6.11215e-05
-6.15661e-05
-6.208e-05
-6.25285e-05
-6.29789e-05
-6.34311e-05
-6.39533e-05
-6.44778e-05
-6.49361e-05
-6.53962e-05
-6.59271e-05
-6.63912e-05
-6.69264e-05
-6.73944e-05
-6.7934e-05
-6.8476e-05
-6.89502e-05
-6.94965e-05
-6.99746e-05
-7.05253e-05
-7.10784e-05
-7.16338e-05
-7.21203e-05
-7.26801e-05
-7.32422e-05
-7.38068e-05
-7.43015e-05
-7.48704e-05
-7.55143e-05
-7.60156e-05
-7.65916e-05
-7.717e-05
-7.77508e-05
-7.83339e-05
-7.89194e-05
-7.95073e-05
-8.00976e-05
-8.06902e-05
-8.12852e-05
-8.18826e-05
-8.25573e-05
-8.31599e-05
-8.37647e-05
-8.4372e-05
-8.49816e-05
-8.56696e-05
-8.62844e-05
-8.69779e-05
-8.75211e-05
-8.82198e-05
-8.89215e-05
-8.95488e-05
-9.01785e-05
-9.08883e-05
-9.1601e-05
-9.22386e-05
-9.28785e-05
-9.35994e-05
-9.43232e-05
-9.49709e-05
-9.57794e-05
-9.63533e-05
-9.71677e-05
-9.78261e-05
-9.85668e-05
-9.93105e-05
-9.99767e-05
-0.000100807
-0.000101478
-0.000102314
-0.000102992
-0.000103752
-0.000104516
-0.000105283
-0.000106135
-0.000106826
-0.000107602
-0.000108463
-0.000109245
-0.00011003
-0.000110818
-0.000111692
-0.000112402
-0.000113283
-0.000114167
-0.00011497
-0.000115776
-0.000116585
-0.000117482
-0.000118383
-0.000119202
-0.000120109
-0.000120934
-0.000121847
-0.000122765
-0.000123599
-0.000124523
-0.000125363
-0.000126381
-0.000127228
-0.000128166
-0.000129107
-0.000130051
-0.000130999
-0.000131951
-0.000132817
-0.000133864
-0.000134826
-0.000135791
-0.00013676
-0.000137823
-0.000138708
-0.000139778
-0.000140761
-0.000141747
-0.000142828
-0.000143822
-0.000144819
-0.000145911
-0.000147008
-0.000148016
-0.000149027
-0.000150135
-0.000151246
-0.000152269
-0.000153388
-0.000154511
-0.000155544
-0.000156769
-0.00015781
-0.000158948
-0.000160091
-0.000161142
-0.000162388
-0.000163542
-0.0001647
-0.000165862
-0.000167028
-0.000168295
-0.000169372
-0.000170647
-0.000171829
-0.000173112
-0.000174302
-0.000175495
-0.000176791
-0.000177993
-0.000179199
-0.000180605
-0.000181819
-0.000183037
-0.000184358
-0.000185683
-0.000187013
-0.000188347
-0.000189585
-0.000190927
-0.000192374
-0.000193624
-0.000194979
-0.00019644
-0.000197702
-0.000199172
-0.000200442
-0.000201921
-0.000203404
-0.000204686
-0.000206178
-0.000207675
-0.000209073
-0.000210475
-0.000211986
-0.000213501
-0.000214916
-0.000216439
-0.000217863
-0.000219395
-0.000221038
-0.000222474
-0.000224021
-0.000225571
-0.000227127
-0.000228686
-0.00023025
-0.000231819
-0.000233392
-0.000235077
-0.000236659
-0.000238245
-0.000239944
-0.000241539
-0.000243247
-0.000244851
-0.000246568
-0.000248181
-0.000249907
-0.000251638
-0.000253264
-0.000255114
-0.000256748
-0.000258608
-0.000260251
-0.000262009
-0.000263772
-0.00026565
-0.000267422
-0.000269198
-0.000270978
-0.000272875
-0.000274664
-0.000276458
-0.000278481
-0.00028017
-0.00028209
-0.000284014
-0.000285942
-0.000287876
-0.000289699
-0.00029164
-0.000293586
-0.000295652
-0.000297491
-0.00029945
-0.000301528
-0.000303496
-0.000305467
-0.000307559
-0.000309538
-0.000311522
-0.000313626
-0.000315734
-0.00031773
-0.000319846
-0.000321967
-0.000323973
-0.00032622
-0.000328234
-0.000330489
-0.00033251
-0.000334773
-0.00033692
-0.000339071
-0.000341226
-0.000343504
-0.000345665
-0.00034795
-0.000350118
-0.00035241
-0.000354706
-0.000357005
-0.000359185
-0.00036149
-0.000363921
-0.00036611
-0.000368424
-0.000370863
-0.000373061
-0.000375506
-0.000377954
-0.000380282
-0.000382612
-0.000385068
-0.000387527
-0.000389864
-0.000392327
-0.000394792
-0.00039726
-0.000399605
-0.000402201
-0.000404674
-0.000407149
-0.000409751
-0.000412228
-0.000414707
-0.000417314
-0.000419795
-0.000422404
-0.000424887
-0.000427625
-0.000430109
-0.000432721
-0.000435334
-0.000437947
-0.000440688
-0.000443301
-0.000445786
-0.000448656
-0.000451269
-0.000453881
-0.000456621
-0.000459361
-0.000461971
-0.000464709
-0.000467576
-0.000470182
-0.000472916
-0.000475779
-0.00047838
-0.000481238
-0.000484095
-0.00048682
-0.000489673
-0.000492392
-0.000495239
-0.000498084
-0.000500794
-0.000503763
-0.000506598
-0.000509429
-0.000512255
-0.00051521
-0.000518028
-0.000520842
-0.000523783
-0.000526719
-0.00052965
-0.000532444
-0.000535496
-0.000538278
-0.000541319
-0.000544221
-0.000547117
-0.000550006
-0.00055302
-0.000556028
-0.000558894
-0.000561886
-0.000564871
-0.000567846
-0.000570813
-0.000573772
-0.000576721
-0.000579794
-0.000582723
-0.000585777
-0.000588686
-0.000591718
-0.000594739
-0.000597749
-0.000600613
-0.000603732
-0.000606706
-0.0006098
-0.000612614
-0.000615816
-0.000618735
-0.000621641
-0.0006248
-0.000627675
-0.000630669
-0.000633781
)
;
    }
    OUTLET
    {
        type            cyclic;
        value           nonuniform List<scalar> 
1025
(
3.12433e-09
9.42678e-09
1.58133e-08
2.22839e-08
2.88397e-08
3.54807e-08
4.22066e-08
4.9015e-08
5.59065e-08
6.28739e-08
6.99203e-08
7.70288e-08
8.41961e-08
9.14067e-08
9.86416e-08
1.05874e-07
1.13078e-07
1.20217e-07
1.2725e-07
1.34144e-07
1.40856e-07
1.4737e-07
1.53653e-07
1.59701e-07
1.655e-07
1.71059e-07
1.76359e-07
1.81466e-07
1.86312e-07
1.90993e-07
1.95484e-07
1.99753e-07
2.03951e-07
2.07958e-07
2.11831e-07
2.15584e-07
2.19228e-07
2.22822e-07
2.2633e-07
2.29709e-07
2.33068e-07
2.36363e-07
2.39602e-07
2.42791e-07
2.45934e-07
2.49088e-07
2.52155e-07
2.5519e-07
2.58249e-07
2.61283e-07
2.64296e-07
2.67235e-07
2.70267e-07
2.73174e-07
2.76179e-07
2.79175e-07
2.82107e-07
2.85032e-07
2.88008e-07
2.90981e-07
2.93952e-07
2.96922e-07
2.99892e-07
3.02863e-07
3.05896e-07
3.08874e-07
3.11915e-07
3.14902e-07
3.18016e-07
3.21016e-07
3.24146e-07
3.27162e-07
3.3031e-07
3.33469e-07
3.36515e-07
3.39758e-07
3.4289e-07
3.46159e-07
3.49317e-07
3.52614e-07
3.558e-07
3.59191e-07
3.62407e-07
3.65831e-07
3.69143e-07
3.72537e-07
3.75949e-07
3.79379e-07
3.82894e-07
3.86362e-07
3.8985e-07
3.93424e-07
3.97018e-07
4.00634e-07
4.04272e-07
4.08e-07
4.11614e-07
4.15386e-07
4.19183e-07
4.22934e-07
4.26778e-07
4.30647e-07
4.3461e-07
4.38459e-07
4.42545e-07
4.46445e-07
4.50513e-07
4.5468e-07
4.58731e-07
4.62882e-07
4.67133e-07
4.71267e-07
4.75649e-07
4.79915e-07
4.84284e-07
4.88683e-07
4.93112e-07
4.97573e-07
5.0214e-07
5.06664e-07
5.11295e-07
5.15959e-07
5.20657e-07
5.25387e-07
5.30229e-07
5.35029e-07
5.39862e-07
5.44808e-07
5.49869e-07
5.54809e-07
5.59863e-07
5.65033e-07
5.70241e-07
5.75408e-07
5.80692e-07
5.86014e-07
5.91376e-07
5.96858e-07
6.02299e-07
6.07862e-07
6.13383e-07
6.19111e-07
6.24797e-07
6.30526e-07
6.36381e-07
6.42195e-07
6.48136e-07
6.54121e-07
6.60236e-07
6.66225e-07
6.7243e-07
6.78681e-07
6.84979e-07
6.91324e-07
6.97715e-07
7.04154e-07
7.10729e-07
7.17264e-07
7.24026e-07
7.30658e-07
7.3752e-07
7.44434e-07
7.51307e-07
7.58232e-07
7.65391e-07
7.72511e-07
7.79684e-07
7.87003e-07
7.94377e-07
8.01333e-07
8.09191e-07
8.17681e-07
8.24326e-07
8.31975e-07
8.3968e-07
8.4841e-07
8.55263e-07
8.64116e-07
8.72056e-07
8.80054e-07
8.8811e-07
8.96223e-07
9.05396e-07
9.13635e-07
9.21933e-07
9.31305e-07
9.3973e-07
9.48214e-07
9.56759e-07
9.66398e-07
9.76111e-07
9.8381e-07
9.94704e-07
1.00253e-06
1.01357e-06
1.02151e-06
1.03271e-06
1.04078e-06
1.05213e-06
1.06141e-06
1.07075e-06
1.08124e-06
1.09182e-06
1.10247e-06
1.11209e-06