/*--------------------------------*- C++ -*----------------------------------*\
| =========                 |                                                 |
| \\      /  F ield         | OpenFOAM: The Open Source CFD Toolbox           |
|  \\    /   O peration     | Version:  v1806                                 |
|   \\  /    A nd           | Web:      www.OpenFOAM.com                      |
|    \\/     M anipulation  |                                                 |
\*---------------------------------------------------------------------------*/
FoamFile
{
    version     2.0;
    format      ascii;
    class       volSymmTensorField;
    location    "10000";
    object      turbulenceProperties:R;
}
// * * * * * * * * * * * * * * * * * * * * * * * * * * * * * * * * * * * * * //

dimensions      [0 2 -2 0 0 0 0];


internalField   nonuniform List<symmTensor> 
1025
(
(1.1131e-06 -4.48174e-10 0 1.1131e-06 0 1.1131e-06)
(1.61327e-05 -3.11314e-08 0 1.61327e-05 0 1.61327e-05)
(4.89686e-05 -1.71471e-07 0 4.89686e-05 0 4.89686e-05)
(9.99659e-05 -5.10883e-07 0 9.99659e-05 0 9.99659e-05)
(0.000169461 -1.1499e-06 0 0.000169461 0 0.000169461)
(0.000257779 -2.20951e-06 0 0.000257779 0 0.000257779)
(0.000365222 -3.84475e-06 0 0.000365222 0 0.000365222)
(0.000492055 -6.26351e-06 0 0.000492055 0 0.000492055)
(0.000638495 -9.75137e-06 0 0.000638495 0 0.000638495)
(0.000804678 -1.47035e-05 0 0.000804678 0 0.000804678)
(0.000990631 -2.16639e-05 0 0.000990631 0 0.000990631)
(0.00119622 -3.13674e-05 0 0.00119622 0 0.00119622)
(0.00142107 -4.47759e-05 0 0.00142107 0 0.00142107)
(0.00166449 -6.30918e-05 0 0.00166449 0 0.00166449)
(0.0019254 -8.77201e-05 0 0.0019254 0 0.0019254)
(0.00220217 -0.000120147 0 0.00220217 0 0.00220217)
(0.00249261 -0.000161719 0 0.00249261 0 0.00249261)
(0.00279394 -0.000213338 0 0.00279394 0 0.00279394)
(0.00310288 -0.000275169 0 0.00310288 0 0.00310288)
(0.00341581 -0.000346471 0 0.00341581 0 0.00341581)
(0.00372907 -0.000425657 0 0.00372907 0 0.00372907)
(0.00403922 -0.000510565 0 0.00403922 0 0.00403922)
(0.00434325 -0.000598824 0 0.00434325 0 0.00434325)
(0.00463871 -0.000688178 0 0.00463871 0 0.00463871)
(0.00492378 -0.000776699 0 0.00492378 0 0.00492378)
(0.00519721 -0.000862872 0 0.00519721 0 0.00519721)
(0.00545829 -0.000945593 0 0.00545829 0 0.00545829)
(0.00570676 -0.00102414 0 0.00570676 0 0.00570676)
(0.00594268 -0.0010981 0 0.00594268 0 0.00594268)
(0.00616639 -0.0011673 0 0.00616639 0 0.00616639)
(0.00637841 -0.00123178 0 0.00637841 0 0.00637841)
(0.00657934 -0.0012917 0 0.00657934 0 0.00657934)
(0.00676991 -0.00134732 0 0.00676991 0 0.00676991)
(0.00695084 -0.00139898 0 0.00695084 0 0.00695084)
(0.00712284 -0.00144703 0 0.00712284 0 0.00712284)
(0.00728661 -0.00149184 0 0.00728661 0 0.00728661)
(0.0074428 -0.00153378 0 0.0074428 0 0.0074428)
(0.00759206 -0.0015732 0 0.00759206 0 0.00759206)
(0.00773497 -0.00161042 0 0.00773497 0 0.00773497)
(0.00787205 -0.00164575 0 0.00787205 0 0.00787205)
(0.00800378 -0.00167944 0 0.00800378 0 0.00800378)
(0.00813061 -0.00171175 0 0.00813061 0 0.00813061)
(0.00825294 -0.00174289 0 0.00825294 0 0.00825294)
(0.00837114 -0.00177305 0 0.00837114 0 0.00837114)
(0.00848553 -0.0018024 0 0.00848553 0 0.00848553)
(0.00859642 -0.0018311 0 0.00859642 0 0.00859642)
(0.00870407 -0.00185927 0 0.00870407 0 0.00870407)
(0.00880872 -0.00188704 0 0.00880872 0 0.00880872)
(0.00891061 -0.00191449 0 0.00891061 0 0.00891061)
(0.00900994 -0.00194172 0 0.00900994 0 0.00900994)
(0.00910689 -0.00196881 0 0.00910689 0 0.00910689)
(0.00920162 -0.00199582 0 0.00920162 0 0.00920162)
(0.00929429 -0.00202282 0 0.00929429 0 0.00929429)
(0.00938505 -0.00204985 0 0.00938505 0 0.00938505)
(0.00947401 -0.00207697 0 0.00947401 0 0.00947401)
(0.00956132 -0.00210421 0 0.00956132 0 0.00956132)
(0.00964706 -0.00213161 0 0.00964706 0 0.00964706)
(0.00973134 -0.0021592 0 0.00973134 0 0.00973134)
(0.00981424 -0.002187 0 0.00981424 0 0.00981424)
(0.00989586 -0.00221505 0 0.00989586 0 0.00989586)
(0.00997629 -0.00224336 0 0.00997629 0 0.00997629)
(0.0100556 -0.00227195 0 0.0100556 0 0.0100556)
(0.0101338 -0.00230083 0 0.0101338 0 0.0101338)
(0.010211 -0.00233003 0 0.010211 0 0.010211)
(0.0102873 -0.00235954 0 0.0102873 0 0.0102873)
(0.0103627 -0.00238939 0 0.0103627 0 0.0103627)
(0.0104373 -0.00241958 0 0.0104373 0 0.0104373)
(0.0105111 -0.00245011 0 0.0105111 0 0.0105111)
(0.0105841 -0.002481 0 0.0105841 0 0.0105841)
(0.0106565 -0.00251226 0 0.0106565 0 0.0106565)
(0.0107282 -0.00254387 0 0.0107282 0 0.0107282)
(0.0107992 -0.00257586 0 0.0107992 0 0.0107992)
(0.0108697 -0.00260822 0 0.0108697 0 0.0108697)
(0.0109397 -0.00264095 0 0.0109397 0 0.0109397)
(0.0110091 -0.00267406 0 0.0110091 0 0.0110091)
(0.011078 -0.00270754 0 0.011078 0 0.011078)
(0.0111464 -0.00274141 0 0.0111464 0 0.0111464)
(0.0112145 -0.00277565 0 0.0112145 0 0.0112145)
(0.0112821 -0.00281027 0 0.0112821 0 0.0112821)
(0.0113493 -0.00284527 0 0.0113493 0 0.0113493)
(0.0114162 -0.00288065 0 0.0114162 0 0.0114162)
(0.0114827 -0.00291641 0 0.0114827 0 0.0114827)
(0.0115489 -0.00295254 0 0.0115489 0 0.0115489)
(0.0116147 -0.00298905 0 0.0116147 0 0.0116147)
(0.0116803 -0.00302593 0 0.0116803 0 0.0116803)
(0.0117457 -0.00306319 0 0.0117457 0 0.0117457)
(0.0118107 -0.00310081 0 0.0118107 0 0.0118107)
(0.0118756 -0.0031388 0 0.0118756 0 0.0118756)
(0.0119402 -0.00317716 0 0.0119402 0 0.0119402)
(0.0120046 -0.00321588 0 0.0120046 0 0.0120046)
(0.0120688 -0.00325497 0 0.0120688 0 0.0120688)
(0.0121329 -0.00329441 0 0.0121329 0 0.0121329)
(0.0121967 -0.00333421 0 0.0121967 0 0.0121967)
(0.0122605 -0.00337436 0 0.0122605 0 0.0122605)
(0.012324 -0.00341487 0 0.012324 0 0.012324)
(0.0123875 -0.00345572 0 0.0123875 0 0.0123875)
(0.0124508 -0.00349692 0 0.0124508 0 0.0124508)
(0.012514 -0.00353847 0 0.012514 0 0.012514)
(0.0125772 -0.00358036 0 0.0125772 0 0.0125772)
(0.0126402 -0.00362258 0 0.0126402 0 0.0126402)
(0.0127032 -0.00366514 0 0.0127032 0 0.0127032)
(0.012766 -0.00370804 0 0.012766 0 0.012766)
(0.0128289 -0.00375126 0 0.0128289 0 0.0128289)
(0.0128916 -0.00379481 0 0.0128916 0 0.0128916)
(0.0129543 -0.00383868 0 0.0129543 0 0.0129543)
(0.013017 -0.00388288 0 0.013017 0 0.013017)
(0.0130797 -0.0039274 0 0.0130797 0 0.0130797)
(0.0131423 -0.00397223 0 0.0131423 0 0.0131423)
(0.0132049 -0.00401737 0 0.0132049 0 0.0132049)
(0.0132675 -0.00406283 0 0.0132675 0 0.0132675)
(0.0133301 -0.00410859 0 0.0133301 0 0.0133301)
(0.0133927 -0.00415466 0 0.0133927 0 0.0133927)
(0.0134553 -0.00420103 0 0.0134553 0 0.0134553)
(0.0135179 -0.0042477 0 0.0135179 0 0.0135179)
(0.0135805 -0.00429466 0 0.0135805 0 0.0135805)
(0.0136432 -0.00434192 0 0.0136432 0 0.0136432)
(0.0137059 -0.00438947 0 0.0137059 0 0.0137059)
(0.0137686 -0.00443731 0 0.0137686 0 0.0137686)
(0.0138314 -0.00448543 0 0.0138314 0 0.0138314)
(0.0138942 -0.00453384 0 0.0138942 0 0.0138942)
(0.0139571 -0.00458253 0 0.0139571 0 0.0139571)
(0.01402 -0.00463149 0 0.01402 0 0.01402)
(0.014083 -0.00468073 0 0.014083 0 0.014083)
(0.014146 -0.00473025 0 0.014146 0 0.014146)
(0.0142091 -0.00478003 0 0.0142091 0 0.0142091)
(0.0142723 -0.00483008 0 0.0142723 0 0.0142723)
(0.0143356 -0.00488039 0 0.0143356 0 0.0143356)
(0.0143989 -0.00493097 0 0.0143989 0 0.0143989)
(0.0144623 -0.00498181 0 0.0144623 0 0.0144623)
(0.0145258 -0.00503291 0 0.0145258 0 0.0145258)
(0.0145894 -0.00508426 0 0.0145894 0 0.0145894)
(0.0146531 -0.00513586 0 0.0146531 0 0.0146531)
(0.0147169 -0.00518772 0 0.0147169 0 0.0147169)
(0.0147807 -0.00523982 0 0.0147807 0 0.0147807)
(0.0148447 -0.00529217 0 0.0148447 0 0.0148447)
(0.0149088 -0.00534476 0 0.0149088 0 0.0149088)
(0.014973 -0.00539759 0 0.014973 0 0.014973)
(0.0150373 -0.00545066 0 0.0150373 0 0.0150373)
(0.0151018 -0.00550397 0 0.0151018 0 0.0151018)
(0.0151663 -0.00555751 0 0.0151663 0 0.0151663)
(0.015231 -0.00561129 0 0.015231 0 0.015231)
(0.0152957 -0.00566529 0 0.0152957 0 0.0152957)
(0.0153606 -0.00571953 0 0.0153606 0 0.0153606)
(0.0154257 -0.00577398 0 0.0154257 0 0.0154257)
(0.0154908 -0.00582866 0 0.0154908 0 0.0154908)
(0.0155561 -0.00588357 0 0.0155561 0 0.0155561)
(0.0156216 -0.00593869 0 0.0156216 0 0.0156216)
(0.0156871 -0.00599403 0 0.0156871 0 0.0156871)
(0.0157529 -0.00604959 0 0.0157529 0 0.0157529)
(0.0158187 -0.00610536 0 0.0158187 0 0.0158187)
(0.0158847 -0.00616134 0 0.0158847 0 0.0158847)
(0.0159508 -0.00621753 0 0.0159508 0 0.0159508)
(0.0160171 -0.00627392 0 0.0160171 0 0.0160171)
(0.0160835 -0.00633052 0 0.0160835 0 0.0160835)
(0.0161501 -0.00638733 0 0.0161501 0 0.0161501)
(0.0162169 -0.00644434 0 0.0162169 0 0.0162169)
(0.0162837 -0.00650155 0 0.0162837 0 0.0162837)
(0.0163508 -0.00655895 0 0.0163508 0 0.0163508)
(0.016418 -0.00661656 0 0.016418 0 0.016418)
(0.0164853 -0.00667435 0 0.0164853 0 0.0164853)
(0.0165529 -0.00673234 0 0.0165529 0 0.0165529)
(0.0166205 -0.00679052 0 0.0166205 0 0.0166205)
(0.0166884 -0.00684889 0 0.0166884 0 0.0166884)
(0.0167564 -0.00690745 0 0.0167564 0 0.0167564)
(0.0168246 -0.00696619 0 0.0168246 0 0.0168246)
(0.0168929 -0.00702511 0 0.0168929 0 0.0168929)
(0.0169614 -0.00708422 0 0.0169614 0 0.0169614)
(0.0170301 -0.00714351 0 0.0170301 0 0.0170301)
(0.017099 -0.00720298 0 0.017099 0 0.017099)
(0.017168 -0.00726263 0 0.017168 0 0.017168)
(0.0172372 -0.00732246 0 0.0172372 0 0.0172372)
(0.0173066 -0.00738244 0 0.0173066 0 0.0173066)
(0.0173762 -0.00744258 0 0.0173762 0 0.0173762)
(0.0174459 -0.00750292 0 0.0174459 0 0.0174459)
(0.0175158 -0.00756344 0 0.0175158 0 0.0175158)
(0.0175859 -0.00762411 0 0.0175859 0 0.0175859)
(0.0176562 -0.00768495 0 0.0176562 0 0.0176562)
(0.0177266 -0.00774595 0 0.0177266 0 0.0177266)
(0.0177973 -0.00780711 0 0.0177973 0 0.0177973)
(0.0178681 -0.00786843 0 0.0178681 0 0.0178681)
(0.0179391 -0.00792993 0 0.0179391 0 0.0179391)
(0.0180103 -0.00799159 0 0.0180103 0 0.0180103)
(0.0180817 -0.0080534 0 0.0180817 0 0.0180817)
(0.0181532 -0.00811535 0 0.0181532 0 0.0181532)
(0.018225 -0.00817747 0 0.018225 0 0.018225)
(0.018297 -0.00823973 0 0.018297 0 0.018297)
(0.0183691 -0.00830213 0 0.0183691 0 0.0183691)
(0.0184415 -0.0083647 0 0.0184415 0 0.0184415)
(0.018514 -0.00842744 0 0.018514 0 0.018514)
(0.0185867 -0.00849031 0 0.0185867 0 0.0185867)
(0.0186596 -0.00855331 0 0.0186596 0 0.0186596)
(0.0187327 -0.00861647 0 0.0187327 0 0.0187327)
(0.018806 -0.00867976 0 0.018806 0 0.018806)
(0.0188795 -0.0087432 0 0.0188795 0 0.0188795)
(0.0189532 -0.00880678 0 0.0189532 0 0.0189532)
(0.0190271 -0.00887049 0 0.0190271 0 0.0190271)
(0.0191012 -0.00893435 0 0.0191012 0 0.0191012)
(0.0191755 -0.00899834 0 0.0191755 0 0.0191755)
(0.01925 -0.00906246 0 0.01925 0 0.01925)
(0.0193247 -0.00912672 0 0.0193247 0 0.0193247)
(0.0193995 -0.00919112 0 0.0193995 0 0.0193995)
(0.0194746 -0.00925567 0 0.0194746 0 0.0194746)
(0.0195499 -0.00932033 0 0.0195499 0 0.0195499)
(0.0196254 -0.0093851 0 0.0196254 0 0.0196254)
(0.0197011 -0.00945001 0 0.0197011 0 0.0197011)
(0.019777 -0.00951505 0 0.019777 0 0.019777)
(0.0198531 -0.00958021 0 0.0198531 0 0.0198531)
(0.0199294 -0.0096455 0 0.0199294 0 0.0199294)
(0.0200059 -0.00971091 0 0.0200059 0 0.0200059)
(0.0200826 -0.00977643 0 0.0200826 0 0.0200826)
(0.0201596 -0.00984207 0 0.0201596 0 0.0201596)
(0.0202367 -0.00990785 0 0.0202367 0 0.0202367)
(0.020314 -0.00997375 0 0.020314 0 0.020314)
(0.0203915 -0.0100398 0 0.0203915 0 0.0203915)
(0.0204693 -0.0101059 0 0.0204693 0 0.0204693)
(0.0205472 -0.0101721 0 0.0205472 0 0.0205472)
(0.0206254 -0.0102385 0 0.0206254 0 0.0206254)
(0.0207037 -0.010305 0 0.0207037 0 0.0207037)
(0.0207823 -0.0103715 0 0.0207823 0 0.0207823)
(0.0208611 -0.0104382 0 0.0208611 0 0.0208611)
(0.0209401 -0.010505 0 0.0209401 0 0.0209401)
(0.0210193 -0.0105719 0 0.0210193 0 0.0210193)
(0.0210987 -0.0106389 0 0.0210987 0 0.0210987)
(0.0211783 -0.010706 0 0.0211783 0 0.0211783)
(0.0212581 -0.0107732 0 0.0212581 0 0.0212581)
(0.0213382 -0.0108406 0 0.0213382 0 0.0213382)
(0.0214184 -0.010908 0 0.0214184 0 0.0214184)
(0.0214988 -0.0109755 0 0.0214988 0 0.0214988)
(0.0215795 -0.0110431 0 0.0215795 0 0.0215795)
(0.0216604 -0.0111108 0 0.0216604 0 0.0216604)
(0.0217415 -0.0111787 0 0.0217415 0 0.0217415)
(0.0218228 -0.0112466 0 0.0218228 0 0.0218228)
(0.0219043 -0.0113146 0 0.0219043 0 0.0219043)
(0.021986 -0.0113827 0 0.021986 0 0.021986)
(0.022068 -0.0114509 0 0.022068 0 0.022068)
(0.0221501 -0.0115192 0 0.0221501 0 0.0221501)
(0.0222324 -0.0115876 0 0.0222324 0 0.0222324)
(0.022315 -0.0116561 0 0.022315 0 0.022315)
(0.0223977 -0.0117247 0 0.0223977 0 0.0223977)
(0.0224807 -0.0117933 0 0.0224807 0 0.0224807)
(0.0225639 -0.011862 0 0.0225639 0 0.0225639)
(0.0226473 -0.0119309 0 0.0226473 0 0.0226473)
(0.022731 -0.0119998 0 0.022731 0 0.022731)
(0.0228148 -0.0120688 0 0.0228148 0 0.0228148)
(0.0228988 -0.0121379 0 0.0228988 0 0.0228988)
(0.0229831 -0.012207 0 0.0229831 0 0.0229831)
(0.0230676 -0.0122763 0 0.0230676 0 0.0230676)
(0.0231522 -0.0123456 0 0.0231522 0 0.0231522)
(0.0232371 -0.012415 0 0.0232371 0 0.0232371)
(0.0233222 -0.0124845 0 0.0233222 0 0.0233222)
(0.0234075 -0.0125541 0 0.0234075 0 0.0234075)
(0.0234931 -0.0126237 0 0.0234931 0 0.0234931)
(0.0235788 -0.0126935 0 0.0235788 0 0.0235788)
(0.0236647 -0.0127633 0 0.0236647 0 0.0236647)
(0.0237509 -0.0128331 0 0.0237509 0 0.0237509)
(0.0238373 -0.012903 0 0.0238373 0 0.0238373)
(0.0239239 -0.012973 0 0.0239239 0 0.0239239)
(0.0240107 -0.0130431 0 0.0240107 0 0.0240107)
(0.0240977 -0.0131133 0 0.0240977 0 0.0240977)
(0.0241849 -0.0131835 0 0.0241849 0 0.0241849)
(0.0242723 -0.0132538 0 0.0242723 0 0.0242723)
(0.0243599 -0.0133241 0 0.0243599 0 0.0243599)
(0.0244478 -0.0133946 0 0.0244478 0 0.0244478)
(0.0245359 -0.013465 0 0.0245359 0 0.0245359)
(0.0246241 -0.0135356 0 0.0246241 0 0.0246241)
(0.0247126 -0.0136062 0 0.0247126 0 0.0247126)
(0.0248013 -0.0136769 0 0.0248013 0 0.0248013)
(0.0248902 -0.0137476 0 0.0248902 0 0.0248902)
(0.0249793 -0.0138184 0 0.0249793 0 0.0249793)
(0.0250686 -0.0138893 0 0.0250686 0 0.0250686)
(0.0251581 -0.0139602 0 0.0251581 0 0.0251581)
(0.0252478 -0.0140311 0 0.0252478 0 0.0252478)
(0.0253378 -0.0141022 0 0.0253378 0 0.0253378)
(0.0254279 -0.0141733 0 0.0254279 0 0.0254279)
(0.0255183 -0.0142444 0 0.0255183 0 0.0255183)
(0.0256088 -0.0143156 0 0.0256088 0 0.0256088)
(0.0256996 -0.0143869 0 0.0256996 0 0.0256996)
(0.0257906 -0.0144582 0 0.0257906 0 0.0257906)
(0.0258818 -0.0145295 0 0.0258818 0 0.0258818)
(0.0259732 -0.0146009 0 0.0259732 0 0.0259732)
(0.0260648 -0.0146723 0 0.0260648 0 0.0260648)
(0.0261566 -0.0147438 0 0.0261566 0 0.0261566)
(0.0262486 -0.0148154 0 0.0262486 0 0.0262486)
(0.0263408 -0.0148869 0 0.0263408 0 0.0263408)
(0.0264332 -0.0149586 0 0.0264332 0 0.0264332)
(0.0265258 -0.0150303 0 0.0265258 0 0.0265258)
(0.0266187 -0.015102 0 0.0266187 0 0.0266187)
(0.0267117 -0.0151738 0 0.0267117 0 0.0267117)
(0.0268049 -0.0152456 0 0.0268049 0 0.0268049)
(0.0268984 -0.0153174 0 0.0268984 0 0.0268984)
(0.026992 -0.0153893 0 0.026992 0 0.026992)
(0.0270859 -0.0154612 0 0.0270859 0 0.0270859)
(0.0271799 -0.0155332 0 0.0271799 0 0.0271799)
(0.0272742 -0.0156052 0 0.0272742 0 0.0272742)
(0.0273686 -0.0156772 0 0.0273686 0 0.0273686)
(0.0274633 -0.0157493 0 0.0274633 0 0.0274633)
(0.0275582 -0.0158214 0 0.0275582 0 0.0275582)
(0.0276532 -0.0158936 0 0.0276532 0 0.0276532)
(0.0277485 -0.0159657 0 0.0277485 0 0.0277485)
(0.0278439 -0.0160379 0 0.0278439 0 0.0278439)
(0.0279396 -0.0161102 0 0.0279396 0 0.0279396)
(0.0280354 -0.0161824 0 0.0280354 0 0.0280354)
(0.0281315 -0.0162547 0 0.0281315 0 0.0281315)
(0.0282277 -0.0163271 0 0.0282277 0 0.0282277)
(0.0283242 -0.0163994 0 0.0283242 0 0.0283242)
(0.0284208 -0.0164718 0 0.0284208 0 0.0284208)
(0.0285177 -0.0165442 0 0.0285177 0 0.0285177)
(0.0286147 -0.0166166 0 0.0286147 0 0.0286147)
(0.0287119 -0.0166891 0 0.0287119 0 0.0287119)
(0.0288093 -0.0167616 0 0.0288093 0 0.0288093)
(0.0289069 -0.0168341 0 0.0289069 0 0.0289069)
(0.0290048 -0.0169066 0 0.0290048 0 0.0290048)
(0.0291028 -0.0169791 0 0.0291028 0 0.0291028)
(0.029201 -0.0170517 0 0.029201 0 0.029201)
(0.0292993 -0.0171243 0 0.0292993 0 0.0292993)
(0.0293979 -0.0171969 0 0.0293979 0 0.0293979)
(0.0294967 -0.0172695 0 0.0294967 0 0.0294967)
(0.0295957 -0.0173421 0 0.0295957 0 0.0295957)
(0.0296948 -0.0174147 0 0.0296948 0 0.0296948)
(0.0297942 -0.0174874 0 0.0297942 0 0.0297942)
(0.0298937 -0.0175601 0 0.0298937 0 0.0298937)
(0.0299934 -0.0176327 0 0.0299934 0 0.0299934)
(0.0300933 -0.0177054 0 0.0300933 0 0.0300933)
(0.0301934 -0.0177781 0 0.0301934 0 0.0301934)
(0.0302936 -0.0178508 0 0.0302936 0 0.0302936)
(0.0303941 -0.0179236 0 0.0303941 0 0.0303941)
(0.0304948 -0.0179963 0 0.0304948 0 0.0304948)
(0.0305956 -0.018069 0 0.0305956 0 0.0305956)
(0.0306966 -0.0181418 0 0.0306966 0 0.0306966)
(0.0307978 -0.0182145 0 0.0307978 0 0.0307978)
(0.0308992 -0.0182873 0 0.0308992 0 0.0308992)
(0.0310007 -0.01836 0 0.0310007 0 0.0310007)
(0.0311025 -0.0184328 0 0.0311025 0 0.0311025)
(0.0312044 -0.0185055 0 0.0312044 0 0.0312044)
(0.0313065 -0.0185783 0 0.0313065 0 0.0313065)
(0.0314087 -0.0186511 0 0.0314087 0 0.0314087)
(0.0315112 -0.0187238 0 0.0315112 0 0.0315112)
(0.0316138 -0.0187966 0 0.0316138 0 0.0316138)
(0.0317166 -0.0188693 0 0.0317166 0 0.0317166)
(0.0318196 -0.0189421 0 0.0318196 0 0.0318196)
(0.0319228 -0.0190148 0 0.0319228 0 0.0319228)
(0.0320261 -0.0190875 0 0.0320261 0 0.0320261)
(0.0321296 -0.0191603 0 0.0321296 0 0.0321296)
(0.0322333 -0.019233 0 0.0322333 0 0.0322333)
(0.0323371 -0.0193057 0 0.0323371 0 0.0323371)
(0.0324411 -0.0193784 0 0.0324411 0 0.0324411)
(0.0325453 -0.0194511 0 0.0325453 0 0.0325453)
(0.0326497 -0.0195238 0 0.0326497 0 0.0326497)
(0.0327542 -0.0195965 0 0.0327542 0 0.0327542)
(0.0328589 -0.0196691 0 0.0328589 0 0.0328589)
(0.0329638 -0.0197418 0 0.0329638 0 0.0329638)
(0.0330688 -0.0198144 0 0.0330688 0 0.0330688)
(0.033174 -0.019887 0 0.033174 0 0.033174)
(0.0332793 -0.0199596 0 0.0332793 0 0.0332793)
(0.0333849 -0.0200322 0 0.0333849 0 0.0333849)
(0.0334905 -0.0201047 0 0.0334905 0 0.0334905)
(0.0335964 -0.0201773 0 0.0335964 0 0.0335964)
(0.0337024 -0.0202498 0 0.0337024 0 0.0337024)
(0.0338086 -0.0203223 0 0.0338086 0 0.0338086)
(0.0339149 -0.0203948 0 0.0339149 0 0.0339149)
(0.0340214 -0.0204672 0 0.0340214 0 0.0340214)
(0.034128 -0.0205396 0 0.034128 0 0.034128)
(0.0342348 -0.020612 0 0.0342348 0 0.0342348)
(0.0343417 -0.0206844 0 0.0343417 0 0.0343417)
(0.0344488 -0.0207568 0 0.0344488 0 0.0344488)
(0.0345561 -0.0208291 0 0.0345561 0 0.0345561)
(0.0346635 -0.0209014 0 0.0346635 0 0.0346635)
(0.034771 -0.0209737 0 0.034771 0 0.034771)
(0.0348787 -0.0210459 0 0.0348787 0 0.0348787)
(0.0349866 -0.0211181 0 0.0349866 0 0.0349866)
(0.0350946 -0.0211903 0 0.0350946 0 0.0350946)
(0.0352027 -0.0212624 0 0.0352027 0 0.0352027)
(0.0353111 -0.0213345 0 0.0353111 0 0.0353111)
(0.0354195 -0.0214065 0 0.0354195 0 0.0354195)
(0.0355281 -0.0214786 0 0.0355281 0 0.0355281)
(0.0356368 -0.0215506 0 0.0356368 0 0.0356368)
(0.0357457 -0.0216225 0 0.0357457 0 0.0357457)
(0.0358547 -0.0216945 0 0.0358547 0 0.0358547)
(0.0359638 -0.0217663 0 0.0359638 0 0.0359638)
(0.0360731 -0.0218382 0 0.0360731 0 0.0360731)
(0.0361825 -0.02191 0 0.0361825 0 0.0361825)
(0.0362921 -0.0219817 0 0.0362921 0 0.0362921)
(0.0364018 -0.0220534 0 0.0364018 0 0.0364018)
(0.0365116 -0.022125 0 0.0365116 0 0.0365116)
(0.0366216 -0.0221967 0 0.0366216 0 0.0366216)
(0.0367317 -0.0222682 0 0.0367317 0 0.0367317)
(0.0368419 -0.0223397 0 0.0368419 0 0.0368419)
(0.0369523 -0.0224112 0 0.0369523 0 0.0369523)
(0.0370628 -0.0224826 0 0.0370628 0 0.0370628)
(0.0371734 -0.022554 0 0.0371734 0 0.0371734)
(0.0372841 -0.0226253 0 0.0372841 0 0.0372841)
(0.0373949 -0.0226966 0 0.0373949 0 0.0373949)
(0.0375059 -0.0227678 0 0.0375059 0 0.0375059)
(0.037617 -0.0228389 0 0.037617 0 0.037617)
(0.0377282 -0.02291 0 0.0377282 0 0.0377282)
(0.0378396 -0.022981 0 0.0378396 0 0.0378396)
(0.0379511 -0.023052 0 0.0379511 0 0.0379511)
(0.0380626 -0.0231229 0 0.0380626 0 0.0380626)
(0.0381743 -0.0231938 0 0.0381743 0 0.0381743)
(0.0382861 -0.0232646 0 0.0382861 0 0.0382861)
(0.0383981 -0.0233353 0 0.0383981 0 0.0383981)
(0.0385101 -0.023406 0 0.0385101 0 0.0385101)
(0.0386222 -0.0234766 0 0.0386222 0 0.0386222)
(0.0387345 -0.0235472 0 0.0387345 0 0.0387345)
(0.0388468 -0.0236176 0 0.0388468 0 0.0388468)
(0.0389593 -0.023688 0 0.0389593 0 0.0389593)
(0.0390719 -0.0237584 0 0.0390719 0 0.0390719)
(0.0391845 -0.0238287 0 0.0391845 0 0.0391845)
(0.0392973 -0.0238989 0 0.0392973 0 0.0392973)
(0.0394102 -0.023969 0 0.0394102 0 0.0394102)
(0.0395231 -0.0240391 0 0.0395231 0 0.0395231)
(0.0396362 -0.024109 0 0.0396362 0 0.0396362)
(0.0397494 -0.024179 0 0.0397494 0 0.0397494)
(0.0398626 -0.0242488 0 0.0398626 0 0.0398626)
(0.039976 -0.0243185 0 0.039976 0 0.039976)
(0.0400894 -0.0243882 0 0.0400894 0 0.0400894)
(0.040203 -0.0244578 0 0.040203 0 0.040203)
(0.0403166 -0.0245273 0 0.0403166 0 0.0403166)
(0.0404303 -0.0245968 0 0.0404303 0 0.0404303)
(0.0405441 -0.0246661 0 0.0405441 0 0.0405441)
(0.040658 -0.0247354 0 0.040658 0 0.040658)
(0.0407719 -0.0248046 0 0.0407719 0 0.0407719)
(0.040886 -0.0248737 0 0.040886 0 0.040886)
(0.0410001 -0.0249427 0 0.0410001 0 0.0410001)
(0.0411143 -0.0250116 0 0.0411143 0 0.0411143)
(0.0412286 -0.0250805 0 0.0412286 0 0.0412286)
(0.0413429 -0.0251492 0 0.0413429 0 0.0413429)
(0.0414574 -0.0252179 0 0.0414574 0 0.0414574)
(0.0415719 -0.0252864 0 0.0415719 0 0.0415719)
(0.0416864 -0.0253549 0 0.0416864 0 0.0416864)
(0.0418011 -0.0254233 0 0.0418011 0 0.0418011)
(0.0419158 -0.0254916 0 0.0419158 0 0.0419158)
(0.0420305 -0.0255598 0 0.0420305 0 0.0420305)
(0.0421453 -0.0256278 0 0.0421453 0 0.0421453)
(0.0422602 -0.0256958 0 0.0422602 0 0.0422602)
(0.0423752 -0.0257637 0 0.0423752 0 0.0423752)
(0.0424902 -0.0258315 0 0.0424902 0 0.0424902)
(0.0426053 -0.0258992 0 0.0426053 0 0.0426053)
(0.0427204 -0.0259667 0 0.0427204 0 0.0427204)
(0.0428355 -0.0260342 0 0.0428355 0 0.0428355)
(0.0429508 -0.0261016 0 0.0429508 0 0.0429508)
(0.043066 -0.0261688 0 0.043066 0 0.043066)
(0.0431813 -0.026236 0 0.0431813 0 0.0431813)
(0.0432967 -0.026303 0 0.0432967 0 0.0432967)
(0.0434121 -0.02637 0 0.0434121 0 0.0434121)
(0.0435276 -0.0264368 0 0.0435276 0 0.0435276)
(0.043643 -0.0265035 0 0.043643 0 0.043643)
(0.0437586 -0.0265701 0 0.0437586 0 0.0437586)
(0.0438741 -0.0266365 0 0.0438741 0 0.0438741)
(0.0439897 -0.0267029 0 0.0439897 0 0.0439897)
(0.0441053 -0.0267691 0 0.0441053 0 0.0441053)
(0.044221 -0.0268353 0 0.044221 0 0.044221)
(0.0443367 -0.0269013 0 0.0443367 0 0.0443367)
(0.0444524 -0.0269671 0 0.0444524 0 0.0444524)
(0.0445681 -0.0270329 0 0.0445681 0 0.0445681)
(0.0446839 -0.0270985 0 0.0446839 0 0.0446839)
(0.0447996 -0.027164 0 0.0447996 0 0.0447996)
(0.0449154 -0.0272294 0 0.0449154 0 0.0449154)
(0.0450312 -0.0272946 0 0.0450312 0 0.0450312)
(0.0451471 -0.0273598 0 0.0451471 0 0.0451471)
(0.0452629 -0.0274247 0 0.0452629 0 0.0452629)
(0.0453788 -0.0274896 0 0.0453788 0 0.0453788)
(0.0454946 -0.0275543 0 0.0454946 0 0.0454946)
(0.0456105 -0.0276189 0 0.0456105 0 0.0456105)
(0.0457263 -0.0276834 0 0.0457263 0 0.0457263)
(0.0458422 -0.0277477 0 0.0458422 0 0.0458422)
(0.0459581 -0.0278118 0 0.0459581 0 0.0459581)
(0.0460739 -0.0278759 0 0.0460739 0 0.0460739)
(0.0461898 -0.0279398 0 0.0461898 0 0.0461898)
(0.0463056 -0.0280035 0 0.0463056 0 0.0463056)
(0.0464215 -0.0280672 0 0.0464215 0 0.0464215)
(0.0465373 -0.0281306 0 0.0465373 0 0.0465373)
(0.0466531 -0.0281939 0 0.0466531 0 0.0466531)
(0.0467689 -0.0282571 0 0.0467689 0 0.0467689)
(0.0468847 -0.0283201 0 0.0468847 0 0.0468847)
(0.0470005 -0.028383 0 0.0470005 0 0.0470005)
(0.0471162 -0.0284457 0 0.0471162 0 0.0471162)
(0.0472319 -0.0285083 0 0.0472319 0 0.0472319)
(0.0473476 -0.0285707 0 0.0473476 0 0.0473476)
(0.0474633 -0.028633 0 0.0474633 0 0.0474633)
(0.0475789 -0.0286951 0 0.0475789 0 0.0475789)
(0.0476945 -0.028757 0 0.0476945 0 0.0476945)
(0.04781 -0.0288188 0 0.04781 0 0.04781)
(0.0479255 -0.0288804 0 0.0479255 0 0.0479255)
(0.048041 -0.0289419 0 0.048041 0 0.048041)
(0.0481565 -0.0290032 0 0.0481565 0 0.0481565)
(0.0482718 -0.0290643 0 0.0482718 0 0.0482718)
(0.0483872 -0.0291253 0 0.0483872 0 0.0483872)
(0.0485025 -0.029186 0 0.0485025 0 0.0485025)
(0.0486177 -0.0292467 0 0.0486177 0 0.0486177)
(0.0487329 -0.0293071 0 0.0487329 0 0.0487329)
(0.048848 -0.0293674 0 0.048848 0 0.048848)
(0.0489631 -0.0294275 0 0.0489631 0 0.0489631)
(0.0490781 -0.0294874 0 0.0490781 0 0.0490781)
(0.049193 -0.0295472 0 0.049193 0 0.049193)
(0.0493079 -0.0296068 0 0.0493079 0 0.0493079)
(0.0494226 -0.0296662 0 0.0494226 0 0.0494226)
(0.0495374 -0.0297254 0 0.0495374 0 0.0495374)
(0.049652 -0.0297844 0 0.049652 0 0.049652)
(0.0497666 -0.0298433 0 0.0497666 0 0.0497666)
(0.049881 -0.029902 0 0.049881 0 0.049881)
(0.0499954 -0.0299604 0 0.0499954 0 0.0499954)
(0.0501097 -0.0300187 0 0.0501097 0 0.0501097)
(0.050224 -0.0300768 0 0.050224 0 0.050224)
(0.0503381 -0.0301348 0 0.0503381 0 0.0503381)
(0.0504521 -0.0301925 0 0.0504521 0 0.0504521)
(0.0505661 -0.0302502 0 0.0505661 0 0.0505661)
(0.0506799 -0.0303078 0 0.0506799 0 0.0506799)
(0.0507936 -0.0303653 0 0.0507936 0 0.0507936)
(0.0509073 -0.0304227 0 0.0509073 0 0.0509073)
(0.0510208 -0.0304802 0 0.0510208 0 0.0510208)
(0.0511342 -0.0305384 0 0.0511342 0 0.0511342)
(0.0512475 -0.0305964 0 0.0512475 0 0.0512475)
(0.0513607 -0.0306541 0 0.0513607 0 0.0513607)
(0.0514738 -0.0307113 0 0.0514738 0 0.0514738)
(0.0515868 -0.0307673 0 0.0515868 0 0.0515868)
(0.0516996 -0.030823 0 0.0516996 0 0.0516996)
(0.0518123 -0.0308785 0 0.0518123 0 0.0518123)
(0.0519249 -0.0309336 0 0.0519249 0 0.0519249)
(0.0520374 -0.0309885 0 0.0520374 0 0.0520374)
(0.0521497 -0.0310432 0 0.0521497 0 0.0521497)
(0.0522618 -0.0310977 0 0.0522618 0 0.0522618)
(0.0523739 -0.0311519 0 0.0523739 0 0.0523739)
(0.0524858 -0.0312059 0 0.0524858 0 0.0524858)
(0.0525975 -0.0312597 0 0.0525975 0 0.0525975)
(0.0527091 -0.0313133 0 0.0527091 0 0.0527091)
(0.0528205 -0.0313666 0 0.0528205 0 0.0528205)
(0.0529317 -0.0314197 0 0.0529317 0 0.0529317)
(0.0530428 -0.0314726 0 0.0530428 0 0.0530428)
(0.0531538 -0.0315252 0 0.0531538 0 0.0531538)
(0.0532646 -0.0315777 0 0.0532646 0 0.0532646)
(0.0533752 -0.0316299 0 0.0533752 0 0.0533752)
(0.0534856 -0.0316818 0 0.0534856 0 0.0534856)
(0.0535958 -0.0317335 0 0.0535958 0 0.0535958)
(0.0537059 -0.031785 0 0.0537059 0 0.0537059)
(0.0538158 -0.0318363 0 0.0538158 0 0.0538158)
(0.0539255 -0.0318873 0 0.0539255 0 0.0539255)
(0.054035 -0.031938 0 0.054035 0 0.054035)
(0.0541443 -0.0319885 0 0.0541443 0 0.0541443)
(0.0542535 -0.0320388 0 0.0542535 0 0.0542535)
(0.0543624 -0.0320888 0 0.0543624 0 0.0543624)
(0.0544711 -0.0321386 0 0.0544711 0 0.0544711)
(0.0545796 -0.0321882 0 0.0545796 0 0.0545796)
(0.0546879 -0.0322374 0 0.0546879 0 0.0546879)
(0.054796 -0.0322865 0 0.054796 0 0.054796)
(0.0549039 -0.0323352 0 0.0549039 0 0.0549039)
(0.0550116 -0.0323838 0 0.0550116 0 0.0550116)
(0.055119 -0.032432 0 0.055119 0 0.055119)
(0.0552263 -0.03248 0 0.0552263 0 0.0552263)
(0.0553332 -0.0325278 0 0.0553332 0 0.0553332)
(0.05544 -0.0325753 0 0.05544 0 0.05544)
(0.0555465 -0.0326225 0 0.0555465 0 0.0555465)
(0.0556528 -0.0326694 0 0.0556528 0 0.0556528)
(0.0557588 -0.0327161 0 0.0557588 0 0.0557588)
(0.0558647 -0.0327625 0 0.0558647 0 0.0558647)
(0.0559703 -0.0328087 0 0.0559703 0 0.0559703)
(0.0560755 -0.0328546 0 0.0560755 0 0.0560755)
(0.0561805 -0.0329002 0 0.0561805 0 0.0561805)
(0.0562853 -0.0329455 0 0.0562853 0 0.0562853)
(0.0563899 -0.0329905 0 0.0563899 0 0.0563899)
(0.0564941 -0.0330353 0 0.0564941 0 0.0564941)
(0.0565981 -0.0330798 0 0.0565981 0 0.0565981)
(0.0567019 -0.033124 0 0.0567019 0 0.0567019)
(0.0568054 -0.0331679 0 0.0568054 0 0.0568054)
(0.0569086 -0.0332115 0 0.0569086 0 0.0569086)
(0.0570115 -0.0332548 0 0.0570115 0 0.0570115)
(0.057114 -0.0332979 0 0.057114 0 0.057114)
(0.0572163 -0.0333407 0 0.0572163 0 0.0572163)
(0.0573183 -0.0333832 0 0.0573183 0 0.0573183)
(0.05742 -0.0334254 0 0.05742 0 0.05742)
(0.0575214 -0.0334673 0 0.0575214 0 0.0575214)
(0.0576225 -0.0335089 0 0.0576225 0 0.0576225)
(0.0577234 -0.0335502 0 0.0577234 0 0.0577234)
(0.0578239 -0.0335911 0 0.0578239 0 0.0578239)
(0.0579241 -0.0336318 0 0.0579241 0 0.0579241)
(0.0580239 -0.0336722 0 0.0580239 0 0.0580239)
(0.0581234 -0.0337124 0 0.0581234 0 0.0581234)
(0.0582226 -0.0337522 0 0.0582226 0 0.0582226)
(0.0583215 -0.0337916 0 0.0583215 0 0.0583215)
(0.0584201 -0.0338308 0 0.0584201 0 0.0584201)
(0.0585183 -0.0338696 0 0.0585183 0 0.0585183)
(0.0586161 -0.0339082 0 0.0586161 0 0.0586161)
(0.0587137 -0.0339464 0 0.0587137 0 0.0587137)
(0.0588109 -0.0339843 0 0.0588109 0 0.0588109)
(0.0589076 -0.0340219 0 0.0589076 0 0.0589076)
(0.0590041 -0.0340592 0 0.0590041 0 0.0590041)
(0.0591002 -0.0340962 0 0.0591002 0 0.0591002)
(0.059196 -0.0341328 0 0.059196 0 0.059196)
(0.0592914 -0.0341691 0 0.0592914 0 0.0592914)
(0.0593864 -0.034205 0 0.0593864 0 0.0593864)
(0.059481 -0.0342407 0 0.059481 0 0.059481)
(0.0595753 -0.034276 0 0.0595753 0 0.0595753)
(0.0596692 -0.034311 0 0.0596692 0 0.0596692)
(0.0597627 -0.0343456 0 0.0597627 0 0.0597627)
(0.0598558 -0.03438 0 0.0598558 0 0.0598558)
(0.0599485 -0.034414 0 0.0599485 0 0.0599485)
(0.0600408 -0.0344476 0 0.0600408 0 0.0600408)
(0.0601327 -0.0344809 0 0.0601327 0 0.0601327)
(0.0602241 -0.0345139 0 0.0602241 0 0.0602241)
(0.0603152 -0.0345466 0 0.0603152 0 0.0603152)
(0.0604059 -0.0345789 0 0.0604059 0 0.0604059)
(0.0604961 -0.0346108 0 0.0604961 0 0.0604961)
(0.060586 -0.0346424 0 0.060586 0 0.060586)
(0.0606754 -0.0346737 0 0.0606754 0 0.0606754)
(0.0607643 -0.0347045 0 0.0607643 0 0.0607643)
(0.0608529 -0.0347351 0 0.0608529 0 0.0608529)
(0.0609411 -0.0347652 0 0.0609411 0 0.0609411)
(0.0610288 -0.034795 0 0.0610288 0 0.0610288)
(0.061116 -0.0348245 0 0.061116 0 0.061116)
(0.0612027 -0.0348536 0 0.0612027 0 0.0612027)
(0.0612891 -0.0348824 0 0.0612891 0 0.0612891)
(0.0613749 -0.0349108 0 0.0613749 0 0.0613749)
(0.0614603 -0.0349388 0 0.0614603 0 0.0614603)
(0.0615453 -0.0349665 0 0.0615453 0 0.0615453)
(0.0616297 -0.0349938 0 0.0616297 0 0.0616297)