/*--------------------------------*- C++ -*----------------------------------*\
| =========                 |                                                 |
| \\      /  F ield         | OpenFOAM: The Open Source CFD Toolbox           |
|  \\    /   O peration     | Version:  v1806                                 |
|   \\  /    A nd           | Web:      www.OpenFOAM.com                      |
|    \\/     M anipulation  |                                                 |
\*---------------------------------------------------------------------------*/
FoamFile
{
    version     2.0;
    format      ascii;
    class       volVectorField;
    location    "10000";
    object      U;
}
// * * * * * * * * * * * * * * * * * * * * * * * * * * * * * * * * * * * * * //

dimensions      [0 1 -1 0 0 0 0];


internalField   nonuniform List<vector> 
1025
(
(0.000810913 -2.15847e-16 0)
(0.00243524 -3.58383e-16 0)
(0.0040659 -3.81314e-16 0)
(0.00570286 -3.59349e-16 0)
(0.00734602 -3.53136e-16 0)
(0.00899522 -3.53703e-16 0)
(0.0106502 -3.54187e-16 0)
(0.0123104 -3.54129e-16 0)
(0.0139752 -3.54004e-16 0)
(0.0156438 -3.53961e-16 0)
(0.0173147 -3.53945e-16 0)
(0.0189862 -3.53942e-16 0)
(0.0206555 -3.53926e-16 0)
(0.0223194 -3.53899e-16 0)
(0.023973 -3.53865e-16 0)
(0.0256105 -3.53832e-16 0)
(0.0272248 -3.538e-16 0)
(0.0288076 -3.53776e-16 0)
(0.0303503 -3.53768e-16 0)
(0.0318444 -3.53771e-16 0)
(0.033282 -3.53793e-16 0)
(0.0346573 -3.53816e-16 0)
(0.0359658 -3.53848e-16 0)
(0.0372056 -3.53879e-16 0)
(0.038376 -3.53912e-16 0)
(0.0394782 -3.53938e-16 0)
(0.0405143 -3.53976e-16 0)
(0.0414875 -3.53981e-16 0)
(0.0424015 -3.54018e-16 0)
(0.0432601 -3.54024e-16 0)
(0.0440676 -3.5403e-16 0)
(0.0448279 -3.54067e-16 0)
(0.0455451 -3.54044e-16 0)
(0.0462231 -3.54055e-16 0)
(0.0468653 -3.5406e-16 0)
(0.047475 -3.54063e-16 0)
(0.0480552 -3.54072e-16 0)
(0.0486087 -3.54058e-16 0)
(0.049138 -3.54047e-16 0)
(0.0496454 -3.54063e-16 0)
(0.0501329 -3.5405e-16 0)
(0.0506023 -3.54044e-16 0)
(0.0510553 -3.54039e-16 0)
(0.0514933 -3.54035e-16 0)
(0.0519176 -3.54037e-16 0)
(0.0523295 -3.54013e-16 0)
(0.0527301 -3.54016e-16 0)
(0.0531202 -3.54021e-16 0)
(0.0535009 -3.54008e-16 0)
(0.0538728 -3.54002e-16 0)
(0.0542368 -3.53994e-16 0)
(0.0545935 -3.54017e-16 0)
(0.0549434 -3.53983e-16 0)
(0.0552872 -3.54012e-16 0)
(0.0556253 -3.53992e-16 0)
(0.0559582 -3.53977e-16 0)
(0.0562864 -3.53988e-16 0)
(0.0566101 -3.53995e-16 0)
(0.0569299 -3.53982e-16 0)
(0.0572459 -3.53977e-16 0)
(0.0575586 -3.53975e-16 0)
(0.0578682 -3.53973e-16 0)
(0.0581749 -3.53972e-16 0)
(0.0584791 -3.53975e-16 0)
(0.058781 -3.53956e-16 0)
(0.0590807 -3.53968e-16 0)
(0.0593785 -3.53956e-16 0)
(0.0596745 -3.53974e-16 0)
(0.059969 -3.5394e-16 0)
(0.0602621 -3.53959e-16 0)
(0.060554 -3.53924e-16 0)
(0.0608448 -3.53949e-16 0)
(0.0611346 -3.53931e-16 0)
(0.0614236 -3.53918e-16 0)
(0.061712 -3.53957e-16 0)
(0.0619997 -3.53923e-16 0)
(0.062287 -3.53948e-16 0)
(0.062574 -3.53925e-16 0)
(0.0628607 -3.53952e-16 0)
(0.0631472 -3.53928e-16 0)
(0.0634337 -3.53959e-16 0)
(0.0637202 -3.53914e-16 0)
(0.0640068 -3.53946e-16 0)
(0.0642936 -3.5391e-16 0)
(0.0645806 -3.53927e-16 0)
(0.064868 -3.53923e-16 0)
(0.0651558 -3.53923e-16 0)
(0.065444 -3.5393e-16 0)
(0.0657328 -3.53916e-16 0)
(0.0660222 -3.53923e-16 0)
(0.0663122 -3.53932e-16 0)
(0.0666029 -3.53918e-16 0)
(0.0668944 -3.53911e-16 0)
(0.0671867 -3.53913e-16 0)
(0.0674799 -3.53915e-16 0)
(0.067774 -3.53893e-16 0)
(0.068069 -3.5392e-16 0)
(0.0683651 -3.53902e-16 0)
(0.0686622 -3.53881e-16 0)
(0.0689604 -3.5389e-16 0)
(0.0692596 -3.53888e-16 0)
(0.0695601 -3.53893e-16 0)
(0.0698618 -3.53877e-16 0)
(0.0701647 -3.53907e-16 0)
(0.0704689 -3.53869e-16 0)
(0.0707744 -3.53903e-16 0)
(0.0710813 -3.53894e-16 0)
(0.0713895 -3.53865e-16 0)
(0.0716991 -3.53887e-16 0)
(0.0720102 -3.53886e-16 0)
(0.0723228 -3.53868e-16 0)
(0.0726368 -3.53899e-16 0)
(0.0729523 -3.53869e-16 0)
(0.0732695 -3.53885e-16 0)
(0.0735881 -3.53887e-16 0)
(0.0739084 -3.53891e-16 0)
(0.0742304 -3.5389e-16 0)
(0.0745539 -3.53892e-16 0)
(0.0748792 -3.53875e-16 0)
(0.0752061 -3.53877e-16 0)
(0.0755348 -3.53867e-16 0)
(0.0758652 -3.53867e-16 0)
(0.0761974 -3.53861e-16 0)
(0.0765313 -3.53859e-16 0)
(0.0768671 -3.53847e-16 0)
(0.0772047 -3.53854e-16 0)
(0.0775441 -3.53855e-16 0)
(0.0778854 -3.53842e-16 0)
(0.0782286 -3.53819e-16 0)
(0.0785737 -3.53831e-16 0)
(0.0789206 -3.53831e-16 0)
(0.0792695 -3.53825e-16 0)
(0.0796204 -3.53822e-16 0)
(0.0799733 -3.53833e-16 0)
(0.0803281 -3.53825e-16 0)
(0.0806849 -3.53823e-16 0)
(0.0810437 -3.53825e-16 0)
(0.0814045 -3.53813e-16 0)
(0.0817675 -3.53822e-16 0)
(0.0821324 -3.53813e-16 0)
(0.0824994 -3.53827e-16 0)
(0.0828685 -3.53812e-16 0)
(0.0832397 -3.53815e-16 0)
(0.0836131 -3.53812e-16 0)
(0.0839885 -3.53795e-16 0)
(0.0843661 -3.53804e-16 0)
(0.0847458 -3.53801e-16 0)
(0.0851277 -3.538e-16 0)
(0.0855117 -3.53776e-16 0)
(0.085898 -3.53791e-16 0)
(0.0862864 -3.5378e-16 0)
(0.0866771 -3.53781e-16 0)
(0.0870699 -3.53783e-16 0)
(0.087465 -3.53784e-16 0)
(0.0878624 -3.53789e-16 0)
(0.0882619 -3.53799e-16 0)
(0.0886638 -3.53794e-16 0)
(0.0890679 -3.53815e-16 0)
(0.0894742 -3.53802e-16 0)
(0.0898829 -3.53831e-16 0)
(0.0902939 -3.53826e-16 0)
(0.0907072 -3.53818e-16 0)
(0.0911228 -3.53827e-16 0)
(0.0915407 -3.53834e-16 0)
(0.0919609 -3.53818e-16 0)
(0.0923835 -3.53822e-16 0)
(0.0928085 -3.53827e-16 0)
(0.0932358 -3.53814e-16 0)
(0.0936655 -3.53796e-16 0)
(0.0940974 -3.53871e-16 0)
(0.0945317 -3.53832e-16 0)
(0.0949687 -3.53701e-16 0)
(0.0954081 -3.53853e-16 0)
(0.0958496 -3.53825e-16 0)
(0.0962935 -3.53828e-16 0)
(0.0967401 -3.53682e-16 0)
(0.097189 -3.53862e-16 0)
(0.0976402 -3.53733e-16 0)
(0.0980941 -3.53762e-16 0)
(0.0985503 -3.53772e-16 0)
(0.0990089 -3.53783e-16 0)
(0.0994698 -3.53824e-16 0)
(0.0999333 -3.53722e-16 0)
(0.100399 -3.53775e-16 0)
(0.100868 -3.53831e-16 0)
(0.101339 -3.53736e-16 0)
(0.101813 -3.5378e-16 0)
(0.102289 -3.53808e-16 0)
(0.102767 -3.53857e-16 0)
(0.103248 -3.53784e-16 0)
(0.103731 -3.53709e-16 0)
(0.104217 -3.53921e-16 0)
(0.104706 -3.53684e-16 0)
(0.105197 -3.53899e-16 0)
(0.10569 -3.53672e-16 0)
(0.106186 -3.53902e-16 0)
(0.106685 -3.5369e-16 0)
(0.107186 -3.53925e-16 0)
(0.10769 -3.53734e-16 0)
(0.108196 -3.53808e-16 0)
(0.108705 -3.53868e-16 0)
(0.109216 -3.53812e-16 0)
(0.10973 -3.53795e-16 0)
(0.110247 -3.53761e-16 0)
(0.110766 -3.53848e-16 0)
(0.111288 -3.53798e-16 0)
(0.111812 -3.53753e-16 0)
(0.112339 -3.53865e-16 0)
(0.112868 -3.53704e-16 0)
(0.113401 -3.53813e-16 0)
(0.113935 -3.53773e-16 0)
(0.114472 -3.53739e-16 0)
(0.115012 -3.53858e-16 0)
(0.115554 -3.53717e-16 0)
(0.1161 -3.53699e-16 0)
(0.116647 -3.538e-16 0)
(0.117197 -3.5379e-16 0)
(0.11775 -3.53673e-16 0)
(0.118306 -3.53828e-16 0)
(0.118864 -3.53708e-16 0)
(0.119425 -3.53698e-16 0)
(0.119988 -3.53814e-16 0)
(0.120554 -3.53702e-16 0)
(0.121123 -3.53739e-16 0)
(0.121694 -3.53757e-16 0)
(0.122268 -3.53641e-16 0)
(0.122845 -3.5379e-16 0)
(0.123424 -3.53703e-16 0)
(0.124006 -3.53745e-16 0)
(0.124591 -3.53636e-16 0)
(0.125178 -3.53781e-16 0)
(0.125768 -3.5371e-16 0)
(0.12636 -3.53652e-16 0)
(0.126956 -3.53688e-16 0)
(0.127553 -3.53701e-16 0)
(0.128154 -3.53732e-16 0)
(0.128757 -3.53666e-16 0)
(0.129363 -3.53621e-16 0)
(0.129971 -3.53694e-16 0)
(0.130583 -3.53642e-16 0)
(0.131196 -3.53692e-16 0)
(0.131813 -3.53625e-16 0)
(0.132432 -3.53712e-16 0)
(0.133054 -3.53572e-16 0)
(0.133679 -3.53786e-16 0)
(0.134306 -3.53653e-16 0)
(0.134936 -3.5375e-16 0)
(0.135569 -3.53721e-16 0)
(0.136204 -3.53697e-16 0)
(0.136842 -3.5381e-16 0)
(0.137483 -3.53687e-16 0)
(0.138126 -3.53771e-16 0)
(0.138772 -3.5376e-16 0)
(0.139421 -3.53798e-16 0)
(0.140073 -3.5372e-16 0)
(0.140727 -3.53815e-16 0)
(0.141384 -3.53782e-16 0)
(0.142044 -3.53759e-16 0)
(0.142706 -3.53756e-16 0)
(0.143371 -3.53755e-16 0)
(0.144039 -3.53765e-16 0)
(0.144709 -3.53678e-16 0)
(0.145382 -3.53674e-16 0)
(0.146058 -3.53646e-16 0)
(0.146737 -3.53649e-16 0)
(0.147418 -3.53686e-16 0)
(0.148102 -3.53619e-16 0)
(0.148789 -3.53655e-16 0)
(0.149478 -3.53683e-16 0)
(0.15017 -3.53599e-16 0)
(0.150865 -3.53627e-16 0)
(0.151563 -3.53564e-16 0)
(0.152263 -3.53597e-16 0)
(0.152966 -3.53646e-16 0)
(0.153672 -3.53586e-16 0)
(0.15438 -3.53526e-16 0)
(0.155092 -3.5359e-16 0)
(0.155806 -3.53534e-16 0)
(0.156522 -3.53465e-16 0)
(0.157242 -3.53494e-16 0)
(0.157964 -3.53424e-16 0)
(0.158689 -3.53371e-16 0)
(0.159416 -3.53336e-16 0)
(0.160147 -3.53384e-16 0)
(0.16088 -3.53348e-16 0)
(0.161615 -3.53316e-16 0)
(0.162354 -3.53285e-16 0)
(0.163095 -3.53265e-16 0)
(0.163839 -3.5324e-16 0)
(0.164586 -3.53218e-16 0)
(0.165335 -3.53188e-16 0)
(0.166087 -3.53188e-16 0)
(0.166842 -3.53219e-16 0)
(0.1676 -3.53157e-16 0)
(0.16836 -3.5328e-16 0)
(0.169123 -3.53221e-16 0)
(0.169889 -3.53236e-16 0)
(0.170658 -3.53259e-16 0)
(0.171429 -3.53195e-16 0)
(0.172203 -3.53217e-16 0)
(0.17298 -3.53246e-16 0)
(0.17376 -3.53188e-16 0)
(0.174542 -3.53235e-16 0)
(0.175327 -3.53194e-16 0)
(0.176115 -3.53234e-16 0)
(0.176905 -3.5318e-16 0)
(0.177699 -3.53214e-16 0)
(0.178495 -3.53155e-16 0)
(0.179293 -3.53095e-16 0)
(0.180095 -3.53131e-16 0)
(0.180899 -3.53093e-16 0)
(0.181706 -3.53071e-16 0)
(0.182516 -3.53049e-16 0)
(0.183328 -3.53115e-16 0)
(0.184144 -3.5302e-16 0)
(0.184962 -3.53098e-16 0)
(0.185782 -3.53101e-16 0)
(0.186606 -3.53024e-16 0)
(0.187432 -3.53118e-16 0)
(0.188261 -3.53065e-16 0)
(0.189093 -3.53209e-16 0)
(0.189928 -3.53158e-16 0)
(0.190765 -3.53139e-16 0)
(0.191605 -3.53134e-16 0)
(0.192448 -3.53161e-16 0)
(0.193293 -3.53097e-16 0)
(0.194142 -3.53108e-16 0)
(0.194993 -3.53154e-16 0)
(0.195846 -3.5311e-16 0)
(0.196703 -3.53053e-16 0)
(0.197562 -3.53166e-16 0)
(0.198425 -3.53054e-16 0)
(0.19929 -3.53071e-16 0)
(0.200157 -3.53085e-16 0)
(0.201027 -3.53059e-16 0)
(0.2019 -3.5301e-16 0)
(0.202776 -3.52994e-16 0)
(0.203655 -3.53088e-16 0)
(0.204537 -3.52993e-16 0)
(0.205421 -3.53004e-16 0)
(0.206308 -3.52939e-16 0)
(0.207198 -3.52922e-16 0)
(0.20809 -3.52911e-16 0)
(0.208985 -3.529e-16 0)
(0.209884 -3.52885e-16 0)
(0.210784 -3.52865e-16 0)
(0.211688 -3.52769e-16 0)
(0.212594 -3.52801e-16 0)
(0.213503 -3.52675e-16 0)
(0.214415 -3.52701e-16 0)
(0.21533 -3.52703e-16 0)
(0.216248 -3.52779e-16 0)
(0.217168 -3.52895e-16 0)
(0.218091 -3.52895e-16 0)
(0.219017 -3.5292e-16 0)
(0.219945 -3.52881e-16 0)
(0.220877 -3.52847e-16 0)
(0.221811 -3.52842e-16 0)
(0.222748 -3.52792e-16 0)
(0.223688 -3.52866e-16 0)
(0.22463 -3.52824e-16 0)
(0.225576 -3.52884e-16 0)
(0.226524 -3.5284e-16 0)
(0.227474 -3.52817e-16 0)
(0.228428 -3.528e-16 0)
(0.229385 -3.52793e-16 0)
(0.230344 -3.52781e-16 0)
(0.231306 -3.52741e-16 0)
(0.232271 -3.52657e-16 0)
(0.233238 -3.52766e-16 0)
(0.234209 -3.52768e-16 0)
(0.235182 -3.52807e-16 0)
(0.236158 -3.52715e-16 0)
(0.237137 -3.52669e-16 0)
(0.238119 -3.52645e-16 0)
(0.239103 -3.52612e-16 0)
(0.24009 -3.52668e-16 0)
(0.24108 -3.52655e-16 0)
(0.242073 -3.52639e-16 0)
(0.243069 -3.52663e-16 0)
(0.244067 -3.52664e-16 0)
(0.245068 -3.52678e-16 0)
(0.246072 -3.52665e-16 0)
(0.247079 -3.52635e-16 0)
(0.248089 -3.52703e-16 0)
(0.249102 -3.52651e-16 0)
(0.250117 -3.52579e-16 0)
(0.251135 -3.52505e-16 0)
(0.252156 -3.52449e-16 0)
(0.25318 -3.52441e-16 0)
(0.254207 -3.5246e-16 0)
(0.255236 -3.52336e-16 0)
(0.256268 -3.52304e-16 0)
(0.257304 -3.52304e-16 0)
(0.258342 -3.52335e-16 0)
(0.259382 -3.52235e-16 0)
(0.260426 -3.52123e-16 0)
(0.261472 -3.52026e-16 0)
(0.262522 -3.52077e-16 0)
(0.263574 -3.5203e-16 0)
(0.264629 -3.52108e-16 0)
(0.265687 -3.52147e-16 0)
(0.266747 -3.52193e-16 0)
(0.267811 -3.52199e-16 0)
(0.268877 -3.52199e-16 0)
(0.269946 -3.52198e-16 0)
(0.271018 -3.5218e-16 0)
(0.272093 -3.52141e-16 0)
(0.273171 -3.52083e-16 0)
(0.274252 -3.52136e-16 0)
(0.275335 -3.52176e-16 0)
(0.276421 -3.52164e-16 0)
(0.27751 -3.52177e-16 0)
(0.278602 -3.52137e-16 0)
(0.279698 -3.52148e-16 0)
(0.280795 -3.52186e-16 0)
(0.281896 -3.52176e-16 0)
(0.282999 -3.5224e-16 0)
(0.284106 -3.52207e-16 0)
(0.285215 -3.523e-16 0)
(0.286327 -3.52258e-16 0)
(0.287442 -3.52225e-16 0)
(0.28856 -3.52065e-16 0)
(0.289681 -3.52094e-16 0)
(0.290805 -3.52199e-16 0)
(0.291931 -3.52093e-16 0)
(0.293061 -3.52104e-16 0)
(0.294193 -3.51974e-16 0)
(0.295329 -3.51943e-16 0)
(0.296467 -3.52e-16 0)
(0.297608 -3.52042e-16 0)
(0.298752 -3.51988e-16 0)
(0.299899 -3.51974e-16 0)
(0.301048 -3.51987e-16 0)
(0.302201 -3.51902e-16 0)
(0.303357 -3.5183e-16 0)
(0.304515 -3.51664e-16 0)
(0.305677 -3.51618e-16 0)
(0.306841 -3.51511e-16 0)
(0.308008 -3.51495e-16 0)
(0.309179 -3.5146e-16 0)
(0.310352 -3.51392e-16 0)
(0.311528 -3.51536e-16 0)
(0.312707 -3.51618e-16 0)
(0.313889 -3.51648e-16 0)
(0.315074 -3.51613e-16 0)
(0.316261 -3.51675e-16 0)
(0.317452 -3.51779e-16 0)
(0.318646 -3.51884e-16 0)
(0.319842 -3.51872e-16 0)
(0.321042 -3.51882e-16 0)
(0.322245 -3.51816e-16 0)
(0.32345 -3.51903e-16 0)
(0.324659 -3.51839e-16 0)
(0.32587 -3.51775e-16 0)
(0.327084 -3.51741e-16 0)
(0.328302 -3.51821e-16 0)
(0.329522 -3.51939e-16 0)
(0.330745 -3.51833e-16 0)
(0.331972 -3.51568e-16 0)
(0.333201 -3.51405e-16 0)
(0.334433 -3.5142e-16 0)
(0.335668 -3.51313e-16 0)
(0.336907 -3.51173e-16 0)
(0.338148 -3.51203e-16 0)
(0.339392 -3.51233e-16 0)
(0.340639 -3.51254e-16 0)
(0.341889 -3.5121e-16 0)
(0.343142 -3.51105e-16 0)
(0.344399 -3.50937e-16 0)
(0.345658 -3.50786e-16 0)
(0.34692 -3.50707e-16 0)
(0.348185 -3.50472e-16 0)
(0.349453 -3.50322e-16 0)
(0.350725 -3.5035e-16 0)
(0.351999 -3.50444e-16 0)
(0.353276 -3.50427e-16 0)
(0.354556 -3.50497e-16 0)
(0.35584 -3.50475e-16 0)
(0.357126 -3.50596e-16 0)
(0.358415 -3.50721e-16 0)
(0.359708 -3.50814e-16 0)
(0.361003 -3.50815e-16 0)
(0.362302 -3.50874e-16 0)
(0.363603 -3.50954e-16 0)
(0.364908 -3.50956e-16 0)
(0.366215 -3.50958e-16 0)
(0.367526 -3.50836e-16 0)
(0.36884 -3.50825e-16 0)
(0.370157 -3.50781e-16 0)
(0.371477 -3.50781e-16 0)
(0.3728 -3.50751e-16 0)
(0.374126 -3.50552e-16 0)
(0.375455 -3.50365e-16 0)
(0.376787 -3.50335e-16 0)
(0.378122 -3.50311e-16 0)
(0.379461 -3.50276e-16 0)
(0.380802 -3.50038e-16 0)
(0.382147 -3.49832e-16 0)
(0.383494 -3.4983e-16 0)
(0.384845 -3.5005e-16 0)
(0.386199 -3.50062e-16 0)
(0.387556 -3.49908e-16 0)
(0.388916 -3.49855e-16 0)
(0.390279 -3.497e-16 0)
(0.391645 -3.49774e-16 0)
(0.393015 -3.49787e-16 0)
(0.394387 -3.49823e-16 0)
(0.395763 -3.49872e-16 0)
(0.397141 -3.49893e-16 0)
(0.398523 -3.50159e-16 0)
(0.399908 -3.50466e-16 0)
(0.401297 -3.50465e-16 0)
(0.402688 -3.50299e-16 0)
(0.404083 -3.50328e-16 0)
(0.405481 -3.50142e-16 0)
(0.406882 -3.50108e-16 0)
(0.408286 -3.5025e-16 0)
(0.409693 -3.50219e-16 0)
(0.411104 -3.5021e-16 0)
(0.412518 -3.50296e-16 0)
(0.413934 -3.50186e-16 0)
(0.415355 -3.5002e-16 0)
(0.416778 -3.50016e-16 0)
(0.418204 -3.4992e-16 0)
(0.419634 -3.49777e-16 0)
(0.421066 -3.49548e-16 0)
(0.422502 -3.49354e-16 0)
(0.423941 -3.49415e-16 0)
(0.425384 -3.49289e-16 0)
(0.426829 -3.49183e-16 0)
(0.428278 -3.49237e-16 0)
(0.429729 -3.49268e-16 0)
(0.431184 -3.49274e-16 0)
(0.432643 -3.49112e-16 0)
(0.434104 -3.49033e-16 0)
(0.435568 -3.49136e-16 0)
(0.437036 -3.49231e-16 0)
(0.438508 -3.48935e-16 0)
(0.439982 -3.48576e-16 0)
(0.441459 -3.48649e-16 0)
(0.44294 -3.48881e-16 0)
(0.444424 -3.49183e-16 0)
(0.445911 -3.493e-16 0)
(0.447401 -3.4948e-16 0)
(0.448895 -3.49455e-16 0)
(0.450392 -3.49315e-16 0)
(0.451892 -3.4931e-16 0)
(0.453395 -3.49359e-16 0)
(0.454902 -3.49384e-16 0)
(0.456412 -3.49614e-16 0)
(0.457924 -3.49892e-16 0)
(0.459441 -3.49592e-16 0)
(0.46096 -3.49478e-16 0)
(0.462483 -3.4915e-16 0)
(0.46401 -3.49079e-16 0)
(0.465538 -3.48921e-16 0)
(0.46707 -3.48436e-16 0)
(0.468607 -3.47947e-16 0)
(0.470147 -3.47969e-16 0)
(0.471689 -3.48124e-16 0)
(0.473234 -3.47986e-16 0)
(0.474783 -3.47854e-16 0)
(0.476336 -3.47679e-16 0)
(0.477892 -3.46919e-16 0)
(0.479452 -3.46496e-16 0)
(0.481012 -3.46448e-16 0)
(0.482578 -3.46174e-16 0)
(0.484148 -3.46462e-16 0)
(0.485719 -3.46619e-16 0)
(0.487293 -3.46508e-16 0)
(0.488872 -3.46341e-16 0)
(0.490455 -3.4593e-16 0)
(0.492041 -3.4571e-16 0)
(0.493629 -3.45435e-16 0)
(0.495221 -3.45591e-16 0)
(0.496815 -3.45306e-16 0)
(0.498414 -3.44863e-16 0)
(0.500016 -3.44672e-16 0)
(0.501621 -3.44617e-16 0)
(0.503229 -3.44352e-16 0)
(0.504841 -3.44102e-16 0)
(0.506457 -3.43713e-16 0)
(0.508075 -3.436e-16 0)
(0.509696 -3.43427e-16 0)
(0.511321 -3.43294e-16 0)
(0.512949 -3.43233e-16 0)
(0.514582 -3.43476e-16 0)
(0.516218 -3.43887e-16 0)
(0.517856 -3.444e-16 0)
(0.519497 -3.44187e-16 0)
(0.521143 -3.43658e-16 0)
(0.522792 -3.43877e-16 0)
(0.524444 -3.43951e-16 0)
(0.526099 -3.43933e-16 0)
(0.527757 -3.4381e-16 0)
(0.52942 -3.43743e-16 0)
(0.531085 -3.43297e-16 0)
(0.532753 -3.42524e-16 0)
(0.534424 -3.41411e-16 0)
(0.536099 -3.40721e-16 0)
(0.537778 -3.4033e-16 0)
(0.53946 -3.4016e-16 0)
(0.541146 -3.40188e-16 0)
(0.542834 -3.40644e-16 0)
(0.544527 -3.40958e-16 0)
(0.546223 -3.4145e-16 0)
(0.547923 -3.41462e-16 0)
(0.549625 -3.41808e-16 0)
(0.55133 -3.41264e-16 0)
(0.553039 -3.41023e-16 0)
(0.554752 -3.41095e-16 0)
(0.556467 -3.40721e-16 0)
(0.558187 -3.39935e-16 0)
(0.559909 -3.4004e-16 0)
(0.561634 -3.39933e-16 0)
(0.563364 -3.39643e-16 0)
(0.565097 -3.39708e-16 0)
(0.566833 -3.39214e-16 0)
(0.568573 -3.38612e-16 0)
(0.570316 -3.37609e-16 0)
(0.572062 -3.37797e-16 0)
(0.573811 -3.38348e-16 0)
(0.575564 -3.38896e-16 0)
(0.577321 -3.38974e-16 0)
(0.579081 -3.37974e-16 0)
(0.580844 -3.36777e-16 0)
(0.582611 -3.36803e-16 0)
(0.58438 -3.37057e-16 0)
(0.586153 -3.36746e-16 0)
(0.58793 -3.36489e-16 0)
(0.589711 -3.36807e-16 0)
(0.591494 -3.37207e-16 0)
(0.593281 -3.37475e-16 0)
(0.595071 -3.37807e-16 0)
(0.596865 -3.38092e-16 0)
(0.598663 -3.38337e-16 0)
(0.600463 -3.38544e-16 0)
(0.602267 -3.38227e-16 0)
(0.604075 -3.37848e-16 0)
(0.605886 -3.37733e-16 0)
(0.6077 -3.37548e-16 0)
(0.609517 -3.37466e-16 0)
(0.611337 -3.37227e-16 0)
(0.613161 -3.3692e-16 0)
(0.614989 -3.36891e-16 0)
(0.61682 -3.37288e-16 0)
(0.618655 -3.37014e-16 0)
(0.620493 -3.37015e-16 0)
(0.622333 -3.36793e-16 0)
(0.624178 -3.36228e-16 0)
(0.626025 -3.36393e-16 0)
(0.627877 -3.36291e-16 0)
(0.629732 -3.36763e-16 0)
(0.63159 -3.3717e-16 0)
(0.633451 -3.37114e-16 0)
(0.635316 -3.36593e-16 0)
(0.637185 -3.36256e-16 0)
(0.639057 -3.36303e-16 0)
(0.640931 -3.36525e-16 0)
(0.642808 -3.36423e-16 0)
(0.64469 -3.35912e-16 0)
(0.646576 -3.35283e-16 0)
(0.648464 -3.35107e-16 0)
(0.650356 -3.34633e-16 0)
(0.652251 -3.33625e-16 0)
(0.654149 -3.33075e-16 0)
(0.656051 -3.32552e-16 0)
(0.657957 -3.32039e-16 0)
(0.659865 -3.31676e-16 0)
(0.661777 -3.31236e-16 0)
(0.663692 -3.30723e-16 0)
(0.66561 -3.30553e-16 0)
(0.667532 -3.3028e-16 0)
(0.669458 -3.29633e-16 0)
(0.671386 -3.28611e-16 0)
(0.673318 -3.27865e-16 0)
(0.675254 -3.28001e-16 0)
(0.677193 -3.28151e-16 0)
(0.679134 -3.27429e-16 0)
(0.681078 -3.27271e-16 0)
(0.683027 -3.27459e-16 0)
(0.68498 -3.27233e-16 0)
(0.686935 -3.27178e-16 0)
(0.688893 -3.27144e-16 0)
(0.690855 -3.26832e-16 0)
(0.69282 -3.26396e-16 0)
(0.694788 -3.26307e-16 0)
(0.696759 -3.26306e-16 0)
(0.698735 -3.26293e-16 0)
(0.700713 -3.26078e-16 0)
(0.702695 -3.25808e-16 0)
(0.704679 -3.25641e-16 0)
(0.706667 -3.25331e-16 0)
(0.708658 -3.24515e-16 0)
(0.710653 -3.23624e-16 0)
(0.712651 -3.23148e-16 0)
(0.714652 -3.22256e-16 0)
(0.716656 -3.21331e-16 0)
(0.718664 -3.21058e-16 0)
(0.720675 -3.20645e-16 0)
(0.722688 -3.19834e-16 0)
(0.724705 -3.19264e-16 0)
(0.726726 -3.18517e-16 0)
(0.72875 -3.17368e-16 0)
(0.730776 -3.16151e-16 0)
(0.732807 -3.15167e-16 0)
(0.73484 -3.1461e-16 0)
(0.736876 -3.14178e-16 0)
(0.738916 -3.1386e-16 0)
(0.740958 -3.12993e-16 0)
(0.743004 -3.11823e-16 0)
(0.745052 -3.115e-16 0)
(0.747104 -3.11663e-16 0)
(0.749159 -3.11793e-16 0)
(0.751218 -3.1185e-16 0)
(0.75328 -3.11311e-16 0)
(0.755345 -3.0992e-16 0)
(0.757412 -3.08858e-16 0)
(0.759482 -3.08856e-16 0)
(0.761557 -3.09108e-16 0)
(0.763634 -3.09065e-16 0)
(0.765714 -3.09404e-16 0)
(0.767796 -3.08448e-16 0)
(0.769883 -3.06929e-16 0)
(0.771973 -3.06691e-16 0)
(0.774065 -3.07106e-16 0)
(0.77616 -3.0735e-16 0)
(0.778259 -3.0766e-16 0)
(0.780361 -3.07995e-16 0)
(0.782465 -3.07925e-16 0)
(0.784571 -3.07882e-16 0)
(0.786682 -3.07606e-16 0)
(0.788795 -3.06947e-16 0)
(0.790912 -3.05828e-16 0)
(0.793031 -3.04842e-16 0)
(0.795153 -3.04247e-16 0)
(0.797279 -3.04578e-16 0)
(0.799407 -3.04841e-16 0)
(0.801538 -3.05412e-16 0)
(0.803671 -3.06456e-16 0)
(0.805808 -3.06272e-16 0)
(0.807947 -3.05303e-16 0)
(0.81009 -3.05188e-16 0)
(0.812236 -3.05576e-16 0)
(0.814384 -3.05538e-16 0)
(0.816534 -3.0561e-16 0)
(0.818688 -3.05564e-16 0)
(0.820845 -3.05394e-16 0)
(0.823004 -3.05917e-16 0)
(0.825166 -3.05903e-16 0)
(0.827331 -3.04025e-16 0)
(0.829499 -3.02265e-16 0)
(0.831669 -3.02164e-16 0)
(0.833842 -3.01745e-16 0)
(0.836018 -3.00152e-16 0)
(0.838196 -2.99508e-16 0)
(0.840377 -2.9869e-16 0)
(0.842561 -2.98367e-16 0)
(0.844748 -2.98716e-16 0)
(0.846937 -2.98236e-16 0)
(0.849128 -2.97754e-16 0)
(0.851322 -2.98013e-16 0)
(0.853519 -2.98711e-16 0)
(0.855718 -2.99089e-16 0)
(0.85792 -2.98776e-16 0)
(0.860125 -2.98315e-16 0)
(0.862331 -2.98181e-16 0)
(0.864541 -2.97063e-16 0)
(0.866753 -2.95357e-16 0)
(0.868967 -2.9535e-16 0)
(0.871184 -2.9572e-16 0)
(0.873403 -2.94832e-16 0)
(0.875624 -2.93997e-16 0)
(0.877848 -2.93247e-16 0)
(0.880074 -2.92802e-16 0)
(0.882303 -2.93362e-16 0)
(0.884534 -2.96683e-16 0)
(0.886768 -2.99435e-16 0)
(0.889003 -2.99031e-16 0)
(0.89124 -2.98176e-16 0)
(0.89348 -2.98011e-16 0)
(0.895722 -2.97809e-16 0)
(0.897966 -2.97088e-16 0)
(0.900213 -2.9745e-16 0)
(0.902462 -2.97677e-16 0)
(0.904712 -2.96221e-16 0)
(0.906965 -2.9592e-16 0)
(0.90922 -2.98359e-16 0)
(0.911477 -3.00208e-16 0)
(0.913736 -3.00222e-16 0)
(0.915997 -3.00196e-16 0)
(0.918259 -3.00408e-16 0)
(0.920525 -2.99332e-16 0)
(0.922792 -2.97748e-16 0)
(0.92506 -2.98702e-16 0)
(0.92733 -2.99982e-16 0)
(0.929603 -3.00397e-16 0)
(0.931877 -3.0062e-16 0)
(0.934153 -3.00736e-16 0)
(0.936431 -3.00337e-16 0)
(0.93871 -2.98969e-16 0)
(0.940991 -2.96641e-16 0)
(0.943274 -2.94192e-16 0)
(0.945558 -2.92653e-16 0)
(0.947844 -2.91798e-16 0)
(0.950131 -2.90365e-16 0)
(0.952419 -2.89509e-16 0)
(0.95471 -2.89241e-16 0)
(0.957002 -2.88626e-16 0)
(0.959296 -2.87929e-16 0)
(0.96159 -2.88009e-16 0)
(0.963887 -2.89045e-16 0)
(0.966184 -2.89494e-16 0)
(0.968483 -2.88559e-16 0)
(0.970783 -2.87173e-16 0)
(0.973084 -2.86283e-16 0)
(0.975387 -2.86751e-16 0)
(0.977691 -2.87763e-16 0)
(0.979995 -2.88339e-16 0)
(0.982301 -2.88679e-16 0)
(0.984607 -2.87328e-16 0)
(0.986915 -2.86224e-16 0)
(0.989224 -2.87555e-16 0)
(0.991534 -2.87293e-16 0)
(0.993844 -2.85687e-16 0)
(0.996155 -2.8495e-16 0)
(0.998467 -2.84662e-16 0)
(1.00078 -2.81948e-16 0)
(1.00309 -2.78864e-16 0)
(1.00541 -2.7747e-16 0)
(1.00772 -2.7538e-16 0)
(1.01004 -2.73648e-16 0)
(1.01235 -2.69527e-16 0)
(1.01467 -2.66689e-16 0)
(1.01699 -2.68046e-16 0)
(1.0193 -2.68503e-16 0)
(1.02162 -2.66303e-16 0)
(1.02394 -2.6302e-16 0)
(1.02626 -2.62825e-16 0)
(1.02857 -2.63978e-16 0)
(1.03089 -2.64105e-16 0)
(1.03321 -2.62955e-16 0)
(1.03553 -2.59491e-16 0)
(1.03785 -2.57063e-16 0)
(1.04017 -2.57163e-16 0)
(1.04248 -2.57187e-16 0)
(1.0448 -2.56737e-16 0)
(1.04712 -2.55495e-16 0)
(1.04944 -2.54902e-16 0)
(1.05175 -2.55379e-16 0)
(1.05407 -2.55717e-16 0)
(1.05638 -2.55746e-16 0)
(1.0587 -2.52293e-16 0)
(1.06101 -2.49412e-16 0)
(1.06333 -2.51018e-16 0)
(1.06564 -2.54406e-16 0)
(1.06795 -2.55765e-16 0)
(1.07026 -2.56198e-16 0)
(1.07257 -2.58133e-16 0)
(1.07488 -2.58082e-16 0)
(1.07719 -2.54425e-16 0)
(1.0795 -2.50716e-16 0)
(1.0818 -2.45761e-16 0)
(1.08411 -2.40534e-16 0)
(1.08641 -2.39919e-16 0)
(1.08871 -2.39163e-16 0)
(1.09101 -2.40072e-16 0)
(1.09331 -2.40687e-16 0)
(1.0956 -2.35849e-16 0)
(1.0979 -2.32072e-16 0)
(1.10019 -2.26395e-16 0)
(1.10248 -2.19201e-16 0)
(1.10477 -2.16488e-16 0)
(1.10706 -2.17001e-16 0)
(1.10934 -2.17339e-16 0)
(1.11162 -2.17266e-16 0)
(1.1139 -2.16899e-16 0)
(1.11618 -2.14551e-16 0)
(1.11845 -2.10834e-16 0)
(1.12072 -2.10236e-16 0)
(1.12299 -2.11817e-16 0)
(1.12526 -2.12739e-16 0)
(1.12752 -2.12952e-16 0)
(1.12978 -2.09735e-16 0)
(1.13204 -2.0777e-16 0)
(1.13429 -2.05221e-16 0)
(1.13654 -2.03713e-16 0)
(1.13879 -2.04775e-16 0)
(1.14103 -2.04437e-16 0)
(1.14327 -2.02481e-16 0)
(1.14551 -2.02442e-16 0)
(1.14774 -2.02375e-16 0)
(1.14997 -1.99782e-16 0)
(1.15219 -1.98586e-16 0)
(1.15441 -1.97848e-16 0)
(1.15662 -1.92529e-16 0)
(1.15883 -1.86712e-16 0)
(1.16104 -1.79289e-16 0)
(1.16324 -1.70514e-16 0)
(1.16544 -1.68411e-16 0)
(1.16763 -1.70523e-16 0)
(1.16981 -1.74469e-16 0)
(1.17199 -1.72896e-16 0)
(1.17417 -1.66421e-16 0)
(1.17634 -1.6364e-16 0)
(1.17851 -1.66665e-16 0)
(1.18066 -1.71846e-16 0)
(1.18282 -1.74046e-16 0)
(1.18496 -1.72654e-16 0)
(1.1871 -1.7174e-16 0)
(1.18924 -1.73075e-16 0)
(1.19137 -1.74023e-16 0)
(1.19349 -1.73475e-16 0)
(1.1956 -1.73199e-16 0)
(1.19771 -1.74037e-16 0)
(1.19981 -1.75119e-16 0)
(1.2019 -1.78204e-16 0)
(1.20399 -1.79066e-16 0)
(1.20607 -1.76084e-16 0)
(1.20814 -1.76655e-16 0)
(1.2102 -1.77991e-16 0)
(1.21225 -1.76525e-16 0)
(1.2143 -1.7484e-16 0)
(1.21634 -1.7444e-16 0)
(1.21837 -1.74644e-16 0)
(1.22039 -1.7628e-16 0)
(1.2224 -1.79005e-16 0)
(1.22441 -1.78771e-16 0)
(1.2264 -1.74246e-16 0)
(1.22839 -1.71735e-16 0)
(1.23036 -1.6534e-16 0)
(1.23233 -1.596e-16 0)
(1.23428 -1.58782e-16 0)
(1.23623 -1.57822e-16 0)
(1.23816 -1.5941e-16 0)
(1.24009 -1.5994e-16 0)
(1.242 -1.59432e-16 0)
(1.2439 -1.59284e-16 0)
(1.2458 -1.61668e-16 0)
(1.24768 -1.62571e-16 0)
(1.24955 -1.57261e-16 0)
(1.2514 -1.53156e-16 0)
(1.25325 -1.52223e-16 0)
(1.25508 -1.49503e-16 0)
(1.2569 -1.49382e-16 0)
(1.25871 -1.48842e-16 0)
(1.26051 -1.45683e-16 0)
(1.26229 -1.41105e-16 0)
(1.26406 -1.36718e-16 0)
(1.26582 -1.36558e-16 0)
(1.26756 -1.34877e-16 0)
(1.26929 -1.29314e-16 0)
(1.27101 -1.27408e-16 0)
(1.27271 -1.29067e-16 0)
(1.2744 -1.3332e-16 0)
(1.27607 -1.3628e-16 0)
(1.27773 -1.34355e-16 0)
(1.27937 -1.35394e-16 0)
(1.281 -1.40007e-16 0)
(1.28261 -1.42451e-16 0)
(1.2842 -1.40865e-16 0)
(1.28578 -1.38815e-16 0)
(1.28735 -1.37595e-16 0)
(1.28889 -1.34618e-16 0)
(1.29042 -1.37981e-16 0)
(1.29194 -1.43528e-16 0)
(1.29343 -1.45095e-16 0)
(1.29491 -1.47508e-16 0)
(1.29637 -1.4848e-16 0)
(1.29781 -1.46616e-16 0)
(1.29924 -1.45998e-16 0)
(1.30064 -1.42345e-16 0)
(1.30203 -1.3562e-16 0)
(1.3034 -1.29533e-16 0)
(1.30475 -1.2343e-16 0)
(1.30608 -1.27805e-16 0)
(1.30739 -1.28212e-16 0)
(1.30868 -1.24395e-16 0)
(1.30995 -1.24698e-16 0)
(1.3112 -1.25916e-16 0)
(1.31243 -1.31111e-16 0)
(1.31364 -1.3417e-16 0)
(1.31482 -1.39141e-16 0)
(1.31599 -1.37366e-16 0)
(1.31713 -1.30971e-16 0)
(1.31825 -1.31803e-16 0)
(1.31935 -1.26139e-16 0)
(1.32043 -1.21858e-16 0)
(1.32148 -1.24714e-16 0)
(1.32251 -1.13852e-16 0)
(1.32352 -9.90452e-17 0)
(1.3245 -9.63942e-17 0)
(1.32546 -9.67884e-17 0)
(1.3264 -9.72657e-17 0)
(1.32731 -9.74289e-17 0)
(1.3282 -9.44449e-17 0)
(1.32906 -9.03825e-17 0)
(1.32989 -8.60815e-17 0)
(1.3307 -8.37599e-17 0)
(1.33148 -9.00057e-17 0)
(1.33224 -9.07527e-17 0)
(1.33297 -8.17804e-17 0)
(1.33368 -6.71861e-17 0)
(1.33435 -5.61776e-17 0)
(1.335 -5.27447e-17 0)
(1.33562 -4.7643e-17 0)
(1.33622 -4.66476e-17 0)
(1.33678 -4.67237e-17 0)
(1.33731 -4.69972e-17 0)
(1.33782 -3.98541e-17 0)
(1.3383 -3.25888e-17 0)
(1.33874 -3.37777e-17 0)
(1.33916 -3.04819e-17 0)
(1.33954 -2.76694e-17 0)
(1.3399 -2.71703e-17 0)
(1.34022 -2.05864e-17 0)
(1.34051 -1.43348e-17 0)
(1.34077 -1.26892e-17 0)
(1.341 -1.36698e-17 0)
(1.34119 -1.58803e-17 0)
(1.34135 -1.10647e-17 0)
(1.34147 -6.86428e-18 0)
(1.34156 -9.30079e-18 0)
(1.34162 -5.06397e-18 0)
)
;

boundaryField
{
    INLET
    {
        type            cyclic;
    }
    OUTLET
    {
        type            cyclic;
    }
    CENTER
    {
        type            symmetryPlane;
    }
    WALL
    {
        type            noSlip;
    }
    frontAndBackPlanes
    {
        type            empty;
    }
}


// ************************************************************************* //
