/*--------------------------------*- C++ -*----------------------------------*\
| =========                 |                                                 |
| \\      /  F ield         | OpenFOAM: The Open Source CFD Toolbox           |
|  \\    /   O peration     | Version:  v1806                                 |
|   \\  /    A nd           | Web:      www.OpenFOAM.com                      |
|    \\/     M anipulation  |                                                 |
\*---------------------------------------------------------------------------*/
FoamFile
{
    version     2.0;
    format      ascii;
    class       volVectorField;
    location    "10000";
    object      divRS_DNS;
}
// * * * * * * * * * * * * * * * * * * * * * * * * * * * * * * * * * * * * * //

dimensions      [0 1 -2 0 0 0 0];


internalField   nonuniform List<vector> 
1025
(
(-0.00103032 5.63196e-05 1.56072e-07)
(-0.00385856 0.000311548 5.84664e-07)
(-0.00857766 0.000828417 1.29998e-06)
(-0.0184285 0.0022579 2.79396e-06)
(-0.027177 0.00362057 4.12095e-06)
(-0.044138 0.00673242 6.69331e-06)
(-0.0606913 0.00981694 9.20386e-06)
(-0.0793472 0.0136944 1.20255e-05)
(-0.106617 0.0194016 1.61493e-05)
(-0.116411 0.0214517 1.76306e-05)
(-0.151481 0.0294712 2.28961e-05)
(-0.188305 0.037892 2.84251e-05)
(-0.198431 0.0403897 2.99312e-05)
(-0.240078 0.0508185 3.61121e-05)
(-0.273354 0.0591499 4.10506e-05)
(-0.28985 0.0637741 4.3461e-05)
(-0.332266 0.0756632 4.96585e-05)
(-0.358181 0.0829264 5.34447e-05)
(-0.378547 0.0895652 5.63666e-05)
(-0.417798 0.10236 6.19976e-05)
(-0.43668 0.108515 6.47063e-05)
(-0.456224 0.116354 6.74527e-05)
(-0.489149 0.129558 7.2077e-05)
(-0.502528 0.134923 7.39563e-05)
(-0.517662 0.143058 7.6025e-05)
(-0.542225 0.156254 7.9378e-05)
(-0.551657 0.161316 8.06639e-05)
(-0.560733 0.168896 8.18583e-05)
(-0.576102 0.181751 8.38827e-05)
(-0.582412 0.187028 8.47135e-05)
(-0.585699 0.19335 8.50918e-05)
(-0.592061 0.205599 8.58232e-05)
(-0.595143 0.211535 8.61772e-05)
(-0.594467 0.216082 8.60006e-05)
(-0.592757 0.227528 8.55559e-05)
(-0.59172 0.23442 8.52896e-05)
(-0.589725 0.236906 8.49709e-05)
(-0.58132 0.247374 8.36314e-05)
(-0.574912 0.255355 8.2612e-05)
(-0.574381 0.255723 8.25319e-05)
(-0.56085 0.265089 8.04715e-05)
(-0.547859 0.274085 7.84864e-05)
(-0.547859 0.274089 7.84945e-05)
(-0.534104 0.280663 7.64417e-05)
(-0.517006 0.288824 7.38837e-05)
(-0.513651 0.290425 7.33967e-05)
(-0.503349 0.294115 7.19189e-05)
(-0.484082 0.301028 6.91605e-05)
(-0.475109 0.304237 6.78889e-05)
(-0.470403 0.305543 6.72284e-05)
(-0.450131 0.311149 6.43732e-05)
(-0.434562 0.315433 6.21796e-05)
(-0.434574 0.315432 6.21734e-05)
(-0.416242 0.319297 5.96335e-05)
(-0.395876 0.323574 5.68184e-05)
(-0.393876 0.323999 5.65372e-05)
(-0.383175 0.325625 5.50911e-05)
(-0.36336 0.32861 5.24332e-05)
(-0.354319 0.329976 5.12157e-05)
(-0.351374 0.330237 5.08174e-05)
(-0.33262 0.331972 4.83112e-05)
(-0.316897 0.333434 4.62093e-05)
(-0.316974 0.333424 4.62076e-05)
(-0.30384 0.333831 4.44796e-05)
(-0.286438 0.334374 4.21825e-05)
(-0.282121 0.33451 4.16009e-05)
(-0.277009 0.33433 4.0942e-05)
(-0.261134 0.333757 3.88948e-05)
(-0.250259 0.333371 3.75106e-05)
(-0.250305 0.333374 3.75129e-05)
(-0.237769 0.331998 3.59215e-05)
(-0.223249 0.330424 3.41056e-05)
(-0.221451 0.330215 3.38701e-05)
(-0.216278 0.329209 3.32335e-05)
(-0.203273 0.326733 3.16502e-05)
(-0.195547 0.325258 3.07053e-05)
(-0.195622 0.325257 3.07147e-05)
(-0.185056 0.322234 2.94344e-05)
(-0.173462 0.318966 2.80434e-05)
(-0.172562 0.318716 2.79394e-05)
(-0.1682 0.317032 2.73911e-05)
(-0.158009 0.313077 2.61006e-05)
(-0.152135 0.310812 2.53675e-05)
(-0.152122 0.310809 2.53713e-05)
(-0.143907 0.30667 2.42667e-05)
(-0.134862 0.302151 2.30631e-05)
(-0.134142 0.301759 2.29723e-05)
(-0.131018 0.299802 2.25118e-05)
(-0.123021 0.294835 2.13416e-05)
(-0.11825 0.291764 2.0634e-05)
(-0.118213 0.291789 2.06319e-05)
(-0.112169 0.287213 1.96823e-05)
(-0.105226 0.281805 1.85766e-05)
(-0.10431 0.281067 1.84219e-05)
(-0.102321 0.279245 1.80938e-05)
(-0.0961139 0.27362 1.7096e-05)
(-0.0919389 0.269863 1.642e-05)
(-0.0920011 0.269832 1.64088e-05)
(-0.0878105 0.265296 1.57107e-05)
(-0.0824221 0.259572 1.48132e-05)
(-0.0812239 0.258196 1.46057e-05)
(-0.0801154 0.256817 1.4416e-05)
(-0.0754847 0.250955 1.35856e-05)
(-0.0717631 0.24633 1.29445e-05)
(-0.0717441 0.246287 1.29474e-05)
(-0.0689611 0.242301 1.24131e-05)
(-0.0647687 0.236348 1.16127e-05)
(-0.0635155 0.234357 1.13527e-05)
(-0.0630654 0.233659 1.12611e-05)
(-0.0593549 0.227679 1.04788e-05)
(-0.0562049 0.22242 9.78557e-06)
(-0.0561743 0.222385 9.78615e-06)
(-0.0543795 0.21912 9.38054e-06)
(-0.0511466 0.213204 8.63403e-06)
(-0.0496884 0.210454 8.3042e-06)
(-0.0497579 0.210451 8.31064e-06)
(-0.0469733 0.20474 7.6487e-06)
(-0.0441249 0.198899 6.96711e-06)
(-0.0440667 0.198785 6.9567e-06)
(-0.0430466 0.196377 6.70956e-06)
(-0.0405561 0.190656 6.10955e-06)
(-0.0391118 0.187325 5.76386e-06)
(-0.0390753 0.187326 5.76613e-06)
(-0.0371479 0.182525 5.33949e-06)
(-0.0350121 0.177016 4.84232e-06)
(-0.0347762 0.176263 4.77633e-06)
(-0.0341859 0.174517 4.67546e-06)
(-0.0321679 0.169124 4.31782e-06)
(-0.0308032 0.165469 4.06914e-06)
(-0.0308726 0.165481 4.07859e-06)
(-0.0296046 0.161478 3.93312e-06)
(-0.0278489 0.156288 3.73888e-06)
(-0.0274374 0.15506 3.7002e-06)
(-0.027102 0.153993 3.68304e-06)
(-0.0255941 0.148993 3.60368e-06)
(-0.0244389 0.14505 3.55224e-06)
(-0.0243929 0.144986 3.5493e-06)
(-0.0235297 0.141856 3.46456e-06)
(-0.0221971 0.137116 3.33967e-06)
(-0.0217544 0.135392 3.29021e-06)
(-0.0216533 0.134894 3.25474e-06)
(-0.0204154 0.130385 2.89206e-06)
(-0.0193844 0.126299 2.57126e-06)
(-0.0193603 0.126239 2.57915e-06)
(-0.0187429 0.12374 2.20499e-06)
(-0.0177356 0.119417 1.57044e-06)
(-0.0173247 0.117547 1.30754e-06)
(-0.0172433 0.117383 1.26891e-06)
(-0.0163221 0.113279 4.16386e-07)
(-0.015471 0.109263 -3.93236e-07)
(-0.0153985 0.109265 -3.91364e-07)
(-0.0150072 0.107285 -8.48231e-07)
(-0.0142377 0.103348 -1.70871e-06)
(-0.0137906 0.101468 -2.11918e-06)
(-0.0137891 0.101436 -2.12818e-06)
(-0.0130373 0.0977118 -2.74353e-06)
(-0.0122882 0.0940647 -3.34344e-06)
(-0.0123548 0.0940586 -3.34015e-06)
(-0.0120505 0.0922614 -3.47248e-06)
(-0.0113177 0.0888163 -3.73301e-06)
(-0.0110184 0.0871083 -3.86264e-06)
(-0.0110885 0.0870625 -3.86267e-06)
(-0.010432 0.0838158 -3.89321e-06)
(-0.00983875 0.0805217 -3.92346e-06)
(-0.0099125 0.0805021 -3.92299e-06)
(-0.00962763 0.0789323 -3.89864e-06)
(-0.00910626 0.0758849 -3.85068e-06)
(-0.00888525 0.0743989 -3.82655e-06)
(-0.00884464 0.0742359 -3.82677e-06)
(-0.00833618 0.0713825 -3.69823e-06)
(-0.00794227 0.0686212 -3.57413e-06)
(-0.00796067 0.0686229 -3.57351e-06)
(-0.00769492 0.0670556 -3.431e-06)
(-0.00731611 0.0643459 -3.18573e-06)
(-0.0071081 0.0632273 -3.07825e-06)
(-0.00707362 0.0629214 -3.04058e-06)
(-0.0067582 0.0604252 -2.76035e-06)
(-0.00644254 0.0582086 -2.5092e-06)
(-0.00641173 0.0581553 -2.50842e-06)
(-0.00615955 0.0566104 -2.37433e-06)
(-0.005853 0.0542938 -2.16849e-06)
(-0.0057698 0.0534813 -2.0971e-06)
(-0.00568607 0.0529408 -2.08117e-06)
(-0.00538512 0.0507729 -2.00015e-06)
(-0.00514086 0.0491113 -1.936e-06)
(-0.00516997 0.0491428 -1.94286e-06)
(-0.00498424 0.0474577 -1.98799e-06)
(-0.00469269 0.045416 -2.0442e-06)
(-0.00461748 0.0451007 -2.05102e-06)
(-0.00454077 0.0442864 -2.13118e-06)
(-0.00435963 0.0424265 -2.3177e-06)
(-0.00418115 0.0413338 -2.41863e-06)
(-0.00416108 0.0412432 -2.42295e-06)
(-0.00398479 0.0395321 -2.60509e-06)
(-0.00375687 0.0378295 -2.78111e-06)
(-0.00373931 0.0378083 -2.78368e-06)
(-0.00361877 0.0367562 -2.79657e-06)
(-0.00344753 0.035144 -2.80936e-06)
(-0.00337944 0.0346134 -2.81107e-06)
(-0.00336393 0.0342007 -2.76767e-06)
(-0.00319752 0.0326845 -2.61381e-06)
(-0.00303032 0.0316161 -2.5e-06)
(-0.00301509 0.0316081 -2.49749e-06)
(-0.00290096 0.0303603 -2.37586e-06)
(-0.00273849 0.0289772 -2.24548e-06)
(-0.00272536 0.0288404 -2.22994e-06)
(-0.00266361 0.0281151 -2.28347e-06)
(-0.00250382 0.0268545 -2.37596e-06)
(-0.00244261 0.0263313 -2.41328e-06)
(-0.00243133 0.0260157 -2.49436e-06)
(-0.00227529 0.0248327 -2.81162e-06)
(-0.00216806 0.023946 -3.05468e-06)
(-0.00220625 0.0239807 -3.05995e-06)
(-0.0021 0.0230043 -3.40164e-06)
(-0.00194739 0.0218952 -3.77101e-06)
(-0.0019389 0.0218018 -3.80231e-06)
(-0.00193 0.0211831 -3.95818e-06)
(-0.00178009 0.0201882 -4.21054e-06)
(-0.00172484 0.0198135 -4.30769e-06)
(-0.00171667 0.0195322 -4.3608e-06)
(-0.00161636 0.0186113 -4.52528e-06)
(-0.00156323 0.0180229 -4.63907e-06)
(-0.00155572 0.0179824 -4.64881e-06)
(-0.00145741 0.0171238 -4.79022e-06)
(-0.00135963 0.0163607 -4.93087e-06)
(-0.00139819 0.0163285 -4.9301e-06)
(-0.00130251 0.0157175 -5.06927e-06)
(-0.0012066 0.0149725 -5.25131e-06)
(-0.00124528 0.0148099 -5.28353e-06)
(-0.00115115 0.0143878 -5.37827e-06)
(-0.00105774 0.013707 -5.55734e-06)
(-0.00109638 0.0134211 -5.63597e-06)
(-0.00104756 0.0131796 -5.65999e-06)
(-0.000955695 0.0125552 -5.73837e-06)
(-0.000908402 0.0121108 -5.79584e-06)
(-0.000904101 0.012056 -5.7912e-06)
(-0.000857124 0.0114838 -5.73705e-06)
(-0.000767431 0.0109571 -5.696e-06)
(-0.000806186 0.0109485 -5.69913e-06)
(-0.000760496 0.0104341 -5.57157e-06)
(-0.000672696 0.00992227 -5.43622e-06)
(-0.0006696 0.0098766 -5.42791e-06)
(-0.000624848 0.00949694 -5.33966e-06)
(-0.000580314 0.00899515 -5.22286e-06)
(-0.000536511 0.00887142 -5.19085e-06)
(-0.000533783 0.00866586 -5.11312e-06)
(-0.000490683 0.00817554 -4.97868e-06)
(-0.000447422 0.00797381 -4.91863e-06)
(-0.000445527 0.00785624 -4.85942e-06)
(-0.000362857 0.00741699 -4.72006e-06)
(-0.000360916 0.00714003 -4.64099e-06)
(-0.000359443 0.0070674 -4.63965e-06)
(-0.000317967 0.00667806 -4.63435e-06)
(-0.000276947 0.0064068 -4.6312e-06)
(-0.000236129 0.00637566 -4.65559e-06)
(-0.000235065 0.00599474 -4.83023e-06)
(-0.0001951 0.00573317 -4.98439e-06)
(-0.00015528 0.00574537 -4.9961e-06)
(-0.00015456 0.00541033 -5.2583e-06)
(-0.000115474 0.00511532 -5.51154e-06)
(-0.000114738 0.00509104 -5.51196e-06)
(-7.6365e-05 0.00483767 -5.7393e-06)
(-3.78215e-05 0.00458692 -5.97798e-06)
(-3.78215e-05 0.00452833 -5.99245e-06)
(0 0.00432051 -6.0667e-06)
(3.72995e-05 0.00403834 -6.15066e-06)
(3.72995e-05 0.00401845 -6.16186e-06)
(3.69549e-05 0.00385236 -6.03731e-06)
(0.000110511 0.00357615 -5.87658e-06)
(0.00011016 0.00352231 -5.84479e-06)
(0.000109463 0.0033963 -5.63134e-06)
(0.000145376 0.00319845 -5.34633e-06)
(0.00018082 0.00311145 -5.27497e-06)
(0.000180168 0.00295371 -5.02129e-06)
(0.000214875 0.00275996 -4.67051e-06)
(0.000249772 0.0027465 -4.56929e-06)
(0.000213031 0.00262772 -4.37467e-06)
(0.000247264 0.00240302 -4.08504e-06)
(0.000281345 0.00235618 -3.99156e-06)
(0.000314993 0.00224083 -3.98392e-06)
(0.000313676 0.0020906 -3.96866e-06)
(0.000311984 0.00204587 -3.96324e-06)
(0.000345127 0.00193287 -4.07912e-06)
(0.000377867 0.0017868 -4.23972e-06)
(0.000376281 0.00174411 -4.28523e-06)
(0.000374325 0.00166805 -4.46859e-06)
(0.000440302 0.00152448 -4.72544e-06)
(0.000438383 0.00148349 -4.79771e-06)
(0.000436165 0.00137608 -5.13678e-06)
(0.000467604 0.00126921 -5.58092e-06)
(0.000465428 0.00123014 -5.68484e-06)
(0.000496286 0.00112524 -6.07785e-06)
(0.000494074 0.00105385 -6.55339e-06)
(0.000491569 0.00101614 -6.64044e-06)
(0.000554578 0.000913694 -6.7697e-06)
(0.00055212 0.000811904 -6.91341e-06)
(0.00054938 0.000807947 -6.92955e-06)
(0.000579061 0.000740144 -6.71436e-06)
(0.00057628 0.000640311 -6.49593e-06)
(0.000605413 0.000637352 -6.46278e-06)
(0.000634421 0.000539484 -6.08489e-06)
(0.000631416 0.000441991 -5.73008e-06)
(0.00062844 0.000439908 -5.6655e-06)
(0.000625492 0.000375442 -5.32357e-06)
(0.000653627 0.000311286 -5.0428e-06)
(0.000681646 0.000309839 -4.9576e-06)
(0.000678492 0.000246867 -4.68201e-06)
(0.000705883 0.000184163 -4.49049e-06)
(0.000733164 0.000152813 -4.41136e-06)
(0.00072982 9.12968e-05 -4.24226e-06)
(0.000726397 6.0533e-05 -4.14952e-06)
(0.000722896 1.4516e-07 -4.10553e-06)
(0.000749449 -5.99613e-05 -4.03245e-06)
(0.000775892 -5.9684e-05 -4.00477e-06)
(0.000772205 -8.903e-05 -3.98283e-06)
(0.000768666 -0.000147755 -3.95566e-06)
(0.0007944 -0.000147198 -3.95175e-06)
(0.000819917 -0.000204773 -3.99988e-06)
(0.000816093 -0.000262384 -4.04838e-06)
(0.000812305 -0.000261031 -4.07305e-06)
(0.000837362 -0.000288769 -4.20996e-06)
(0.000833528 -0.000316069 -4.31959e-06)
(0.000829458 -0.000343251 -4.31922e-06)
(0.000882628 -0.000398506 -4.32516e-06)
(0.000878634 -0.000425181 -4.33045e-06)
(0.000874285 -0.000423006 -4.20282e-06)
(0.000898376 -0.000449188 -4.00353e-06)
(0.000894234 -0.000474996 -3.93182e-06)
(0.000917622 -0.000500559 -3.69359e-06)
(0.000913434 -0.00052582 -3.42382e-06)
(0.000909157 -0.000551043 -3.35592e-06)
(0.000932279 -0.000575752 -3.11266e-06)
(0.000955185 -0.000573206 -2.90393e-06)
(0.000951026 -0.000597623 -2.8557e-06)
(0.000946397 -0.000622027 -2.73949e-06)
(0.000968789 -0.000618884 -2.67222e-06)
(0.000964248 -0.000669555 -2.67577e-06)
(0.000986345 -0.000693152 -2.67928e-06)
(0.00100823 -0.000689842 -2.68241e-06)
(0.00100357 -0.000686653 -2.71484e-06)
(0.000998954 -0.000709721 -2.74711e-06)
(0.000994249 -0.000732605 -2.76553e-06)
(0.00101557 -0.000755151 -2.81763e-06)
(0.00103681 -0.000777609 -2.85381e-06)
(0.001032 -0.000773998 -2.90494e-06)
(0.00105271 -0.000770322 -2.98875e-06)
(0.00104785 -0.000792176 -3.0207e-06)
(0.00104294 -0.000814046 -3.18202e-06)
(0.00106343 -0.000835493 -3.34725e-06)
(0.00108348 -0.000831614 -3.43937e-06)
(0.00107844 -0.000827531 -3.70616e-06)
(0.00107334 -0.000848731 -3.88417e-06)
(0.00109331 -0.000869619 -4.05228e-06)
(0.00111285 -0.000890323 -4.29314e-06)
(0.00110776 -0.000886159 -4.37905e-06)
(0.00110235 -0.000881926 -4.54885e-06)
(0.00112155 -0.000902057 -4.70803e-06)
(0.00111638 -0.000922223 -4.76144e-06)
(0.00113535 -0.00091799 -4.8652e-06)
(0.00113014 -0.000913686 -4.91945e-06)
(0.00112462 -0.000933186 -4.90552e-06)
(0.00114327 -0.000952726 -4.88509e-06)
(0.00116164 -0.000948322 -4.85071e-06)
(0.00117981 -0.000967387 -4.75005e-06)
(0.00115084 -0.000986384 -4.6806e-06)
(0.00116867 -0.000981773 -4.59114e-06)
(0.00118666 -0.000977204 -4.46959e-06)
(0.00118092 -0.000972566 -4.4298e-06)
(0.00119844 -0.000990964 -4.38818e-06)
(0.00119294 -0.00100941 -4.35421e-06)
(0.00118736 -0.00100469 -4.37488e-06)
(0.00120436 -0.00102256 -4.40629e-06)
(0.00122131 -0.00104038 -4.40577e-06)
(0.00121567 -0.00103557 -4.32703e-06)
(0.00121009 -0.00103082 -4.25994e-06)
(0.00122667 -0.00102599 -4.15103e-06)
(0.00124321 -0.00104335 -3.96732e-06)
(0.0012373 -0.00106055 -3.88425e-06)
(0.00123145 -0.00105553 -3.78471e-06)
(0.00122579 -0.00105068 -3.69487e-06)
(0.00124178 -0.00104576 -3.65804e-06)
(0.0012576 -0.0010624 -3.59719e-06)
(0.00127315 -0.00107899 -3.56282e-06)
(0.00126737 -0.001074 -3.46492e-06)
(0.00126145 -0.0010904 -3.37823e-06)
(0.00127674 -0.00108528 -3.34151e-06)
(0.00127065 -0.00108001 -3.2853e-06)
(0.00128579 -0.00109613 -3.26392e-06)
(0.00130089 -0.00109107 -3.25181e-06)
(0.00129491 -0.00108605 -3.24206e-06)
(0.00128885 -0.00110171 -3.21926e-06)
(0.00130336 -0.00111721 -3.18984e-06)
(0.00129729 -0.00111192 -3.14865e-06)
(0.00129107 -0.00110668 -3.04801e-06)
(0.00132581 -0.00110148 -2.98174e-06)
(0.00131972 -0.0011166 -2.75983e-06)
(0.00131349 -0.00113166 -2.5206e-06)
(0.00132757 -0.00112643 -2.38406e-06)
(0.0013413 -0.00112113 -2.15602e-06)
(0.00133498 -0.00113564 -2.0347e-06)
(0.00132867 -0.00113044 -1.9395e-06)
(0.00134229 -0.00112511 -1.85669e-06)
(0.00133596 -0.0011395 -1.90931e-06)
(0.0013492 -0.00115366 -1.97943e-06)
(0.00136241 -0.00114836 -2.05747e-06)
(0.00135607 -0.00114293 -2.21751e-06)
(0.0013498 -0.00115697 -2.31874e-06)
(0.00136259 -0.00115153 -2.41183e-06)
(0.00137523 -0.00116508 -2.5031e-06)
(0.00136883 -0.00115975 -2.51916e-06)
(0.00138136 -0.00115428 -2.54289e-06)
(0.00137495 -0.00116772 -2.56593e-06)
(0.00136841 -0.00116225 -2.61123e-06)
(0.00139922 -0.00115672 -2.64346e-06)
(0.00139268 -0.00116977 -2.81698e-06)
(0.00138616 -0.00118289 -2.98808e-06)
(0.00139822 -0.00117745 -3.1972e-06)
(0.00139169 -0.00117195 -3.49567e-06)
(0.00140328 -0.0011664 -3.70229e-06)
(0.00141485 -0.001179 -3.99632e-06)
(0.0014082 -0.00117355 -4.19547e-06)
(0.00140162 -0.00116798 -4.40065e-06)
(0.00141282 -0.00119821 -4.58339e-06)
(0.00142413 -0.00119275 -4.68549e-06)
(0.00141757 -0.00116949 -4.80849e-06)
(0.00142841 -0.00118152 -4.85313e-06)
(0.00143936 -0.00119362 -4.89517e-06)
(0.00143257 -0.00118799 -4.94524e-06)
(0.00142572 -0.00119965 -5.04999e-06)
(0.00143645 -0.00119423 -5.136e-06)
(0.00142997 -0.0011887 -5.37083e-06)
(0.00144026 -0.00120028 -5.59276e-06)
(0.00145056 -0.00119455 -5.81977e-06)
(0.00144358 -0.00120581 -6.09669e-06)
(0.00145382 -0.00120028 -6.3105e-06)
(0.00144709 -0.00119465 -6.58648e-06)
(0.00145701 -0.00120583 -6.77824e-06)
(0.00145029 -0.00121684 -6.98886e-06)
(0.0014599 -0.00121116 -7.13013e-06)
(0.00146966 -0.00120538 -7.18978e-06)
(0.0014627 -0.00121621 -7.23905e-06)
(0.00147228 -0.00121054 -7.16653e-06)
(0.00146545 -0.00120492 -7.09257e-06)
(0.00147461 -0.00121533 -6.96288e-06)
(0.00146779 -0.00122581 -6.80137e-06)
(0.00147701 -0.0012202 -6.61495e-06)
(0.00148614 -0.00121445 -6.36776e-06)
(0.0014791 -0.00122462 -6.14947e-06)
(0.00148806 -0.00123477 -5.87688e-06)
(0.00148102 -0.00122893 -5.6732e-06)
(0.0014897 -0.00122315 -5.48987e-06)
(0.00149837 -0.001233 -5.34591e-06)
(0.00149139 -0.00122732 -5.24426e-06)
(0.00149978 -0.00122146 -5.15733e-06)
(0.00150816 -0.00124651 -5.10139e-06)
(0.00150123 -0.00124085 -5.04657e-06)
(0.00149425 -0.00123501 -5.00817e-06)
(0.00150225 -0.00124432 -4.96532e-06)
(0.00151024 -0.00125346 -4.99587e-06)
(0.0015182 -0.00124769 -5.04055e-06)
(0.00152615 -0.00124184 -5.1043e-06)
(0.00151911 -0.00125103 -5.18403e-06)
(0.0015119 -0.00125988 -5.22809e-06)
(0.00151937 -0.00125391 -5.25959e-06)
(0.00152706 -0.00124805 -5.24464e-06)
(0.00152003 -0.00127153 -5.18797e-06)
(0.00152747 -0.00126568 -5.1288e-06)
(0.00153479 -0.00125966 -5.05585e-06)
(0.0015275 -0.00126811 -5.01444e-06)
(0.00153469 -0.0012622 -5.01699e-06)
(0.00152763 -0.00127059 -5.05025e-06)
(0.00153447 -0.00126461 -5.15753e-06)
(0.00154144 -0.00127266 -5.29252e-06)
(0.00153421 -0.00128092 -5.53382e-06)
(0.00154116 -0.00127493 -5.80784e-06)
(0.00154788 -0.00128295 -6.25435e-06)
(0.00154064 -0.0012769 -6.68255e-06)
(0.00154712 -0.00128468 -7.10196e-06)
(0.00155373 -0.00129246 -7.47484e-06)
(0.00154644 -0.00128644 -7.64958e-06)
(0.00155283 -0.00129399 -7.79215e-06)
(0.00154556 -0.001288 -7.75631e-06)
(0.00155183 -0.0012954 -7.69833e-06)
(0.00155789 -0.00130275 -7.50309e-06)
(0.00156383 -0.00129651 -7.30129e-06)
(0.00155672 -0.00130389 -7.06857e-06)
(0.00156265 -0.00131106 -6.84643e-06)
(0.00156851 -0.00131805 -6.70031e-06)
(0.00156104 -0.00131183 -6.57066e-06)
(0.00156679 -0.00130566 -6.53434e-06)
(0.00157253 -0.0013126 -6.50127e-06)
(0.00156527 -0.00131946 -6.48499e-06)
(0.00157059 -0.00131317 -6.43639e-06)
(0.00157615 -0.00131981 -6.29586e-06)
(0.00156876 -0.00132645 -6.138e-06)
(0.00157411 -0.00133289 -5.96284e-06)
(0.00157936 -0.00132672 -5.77575e-06)
(0.00158462 -0.00132048 -5.59519e-06)
(0.00157718 -0.00132683 -5.41248e-06)
(0.00158214 -0.00133298 -5.25485e-06)
(0.00158721 -0.00133921 -5.16238e-06)
(0.00157977 -0.00133293 -5.15841e-06)
(0.00158455 -0.00132663 -5.1859e-06)
(0.00158944 -0.00133266 -5.23641e-06)
(0.001582 -0.00132647 -5.28257e-06)
(0.00158661 -0.00133223 -5.32002e-06)
(0.00159123 -0.00133811 -5.40084e-06)
(0.00159585 -0.0013199 -5.4882e-06)
(0.00160039 -0.00132567 -5.64281e-06)
(0.00159278 -0.00133128 -5.79694e-06)
(0.00159714 -0.00133686 -6.0403e-06)
(0.00160152 -0.0013307 -6.28587e-06)
(0.0016057 -0.00132441 -6.45301e-06)
(0.00159826 -0.00132992 -6.62034e-06)
(0.00160228 -0.00133525 -6.71101e-06)
(0.00160632 -0.00132898 -6.8514e-06)
(0.00159879 -0.00132273 -7.03563e-06)
(0.00160285 -0.00132807 -7.29144e-06)
(0.00160664 -0.00133316 -7.55668e-06)
(0.00161044 -0.00133826 -7.83746e-06)
(0.00161425 -0.00133206 -8.06779e-06)
(0.0016179 -0.00133698 -8.20164e-06)
(0.00161021 -0.00134184 -8.27348e-06)
(0.00160277 -0.00133564 -8.30315e-06)
(0.00160636 -0.00134048 -8.31332e-06)
(0.0016208 -0.00134518 -8.26296e-06)
(0.00162424 -0.00134985 -8.16957e-06)
(0.0016167 -0.00135453 -8.0345e-06)
(0.00160905 -0.00134813 -7.92678e-06)
(0.00162307 -0.00135258 -7.88512e-06)
(0.0016264 -0.00135711 -7.86903e-06)
(0.00161877 -0.00136147 -7.86985e-06)
(0.00162186 -0.00136578 -7.82235e-06)
(0.00162479 -0.00136992 -7.74923e-06)
(0.00162774 -0.00137407 -7.61678e-06)
(0.00162021 -0.00137821 -7.48769e-06)
(0.00162302 -0.00138221 -7.43463e-06)
(0.00162577 -0.00137565 -7.45026e-06)
(0.00162853 -0.00137958 -7.52237e-06)
(0.00163131 -0.00139382 -7.56179e-06)
(0.00163394 -0.00138735 -7.56759e-06)
(0.0016365 -0.00139098 -7.49121e-06)
(0.00162884 -0.00140487 -7.40206e-06)
(0.00163127 -0.00139826 -7.34595e-06)
(0.00163373 -0.00140176 -7.38285e-06)
(0.0016362 -0.00140535 -7.49739e-06)
(0.00163853 -0.00140872 -7.68174e-06)
(0.00164072 -0.00141203 -7.85554e-06)
(0.001643 -0.00140546 -7.95352e-06)
(0.00163524 -0.00141847 -8.02245e-06)
(0.00163756 -0.00142188 -8.02804e-06)
(0.00163983 -0.00141531 -8.02637e-06)
(0.00164156 -0.00141817 -8.02137e-06)
(0.00164332 -0.00142096 -8.08877e-06)
(0.00164501 -0.00143337 -8.16832e-06)
(0.00164752 -0.00143679 -8.2078e-06)
(0.00164045 -0.00143062 -8.21845e-06)
(0.00164135 -0.00143262 -8.19263e-06)
(0.00165171 -0.00143465 -8.17181e-06)
(0.00164476 -0.00142858 -8.16259e-06)
(0.00164713 -0.00144124 -8.17592e-06)
(0.00165737 -0.00144324 -8.20851e-06)
(0.00164892 -0.00143584 -8.24637e-06)
(0.00165052 -0.00144766 -8.25911e-06)
(0.00165214 -0.00145021 -8.21762e-06)
(0.00165447 -0.00144425 -8.06602e-06)
(0.00165606 -0.00144676 -7.80659e-06)
(0.00164707 -0.00144797 -7.55955e-06)
(0.00164864 -0.00145044 -7.34075e-06)
(0.00165993 -0.00145357 -7.23461e-06)
(0.00166073 -0.00144644 -7.29184e-06)
(0.00165188 -0.00144759 -7.52703e-06)
(0.00165266 -0.00145823 -7.82565e-06)
(0.00166299 -0.00146063 -8.32031e-06)
(0.00166448 -0.00145423 -8.84333e-06)
(0.00165723 -0.00144789 -9.17881e-06)
(0.00165797 -0.00144964 -9.47457e-06)
(0.00165804 -0.0014594 -9.59493e-06)
(0.00165878 -0.00146112 -9.60638e-06)
(0.0016688 -0.00145486 -9.62168e-06)
(0.00166102 -0.00145655 -9.6669e-06)
(0.00166098 -0.00146609 -9.75744e-06)
(0.00167019 -0.00146774 -9.82119e-06)
(0.00166317 -0.00146158 -9.79508e-06)
(0.00166387 -0.0014632 -9.64248e-06)
(0.0016722 -0.00146424 -9.4328e-06)
(0.0016722 -0.00146522 -9.20733e-06)
(0.00166393 -0.00147445 -9.01575e-06)
(0.00166461 -0.00147602 -8.95371e-06)
(0.00167414 -0.00146999 -8.96604e-06)
(0.00167413 -0.00147094 -9.0393e-06)
(0.00166533 -0.00147937 -9.11874e-06)
(0.00166599 -0.00148089 -9.26176e-06)
(0.00167467 -0.00148236 -9.35339e-06)
(0.00167465 -0.00149122 -9.31267e-06)
(0.00167459 -0.00149207 -9.12657e-06)
(0.00167457 -0.001485 -8.90458e-06)
(0.00167518 -0.00148642 -8.75675e-06)
(0.00167581 -0.00149568 -8.71642e-06)
(0.0016751 -0.00149592 -8.81248e-06)
(0.00167443 -0.00149611 -8.98809e-06)
(0.00167437 -0.00149692 -9.19733e-06)
(0.00168202 -0.00149769 -9.30487e-06)
(0.00168197 -0.00150611 -9.27992e-06)
(0.00168124 -0.00150629 -9.17778e-06)
(0.00168055 -0.00149887 -9.0962e-06)
(0.00168047 -0.00150713 -9.07084e-06)
(0.00168043 -0.0015079 -8.97995e-06)
(0.00168035 -0.00150856 -8.81346e-06)
(0.0016871 -0.00151618 -8.59198e-06)
(0.0016864 -0.00151626 -8.40173e-06)
(0.00167895 -0.00151694 -8.35567e-06)
(0.00167826 -0.00151703 -8.42269e-06)
(0.00168489 -0.00152443 -8.58623e-06)
(0.00168483 -0.00152506 -8.73771e-06)
(0.00168352 -0.00152456 -8.85676e-06)
(0.00168942 -0.00153126 -8.96898e-06)
(0.00168934 -0.00153186 -9.00218e-06)
(0.00168152 -0.00153188 -8.91503e-06)
(0.00168732 -0.00153845 -8.64e-06)
(0.00169373 -0.00153847 -8.35937e-06)
(0.00168659 -0.00153899 -8.21939e-06)
(0.00168531 -0.00154545 -8.17059e-06)
(0.00169043 -0.00154436 -8.20864e-06)
(0.00168976 -0.00154431 -8.24858e-06)
(0.00168907 -0.0015443 -8.18014e-06)
(0.00168783 -0.00154373 -7.9619e-06)
(0.00168715 -0.00155054 -7.70585e-06)
(0.0016933 -0.0015505 -7.39928e-06)
(0.00169149 -0.00154938 -7.05389e-06)
(0.00168966 -0.00155502 -6.80734e-06)
(0.0016957 -0.00155497 -6.65697e-06)
(0.00169504 -0.00154822 -6.66782e-06)
(0.00169322 -0.00155376 -6.77085e-06)
(0.00169145 -0.00155931 -6.81792e-06)
(0.00169023 -0.00155869 -6.84641e-06)
(0.00169557 -0.00155811 -6.88765e-06)
(0.00169437 -0.0015575 -6.92342e-06)
(0.00169907 -0.0015629 -6.90537e-06)
(0.00169734 -0.00156824 -6.80689e-06)
(0.00169609 -0.00156763 -6.7042e-06)
(0.00170132 -0.00156699 -6.68499e-06)
(0.00169374 -0.00157274 -6.78553e-06)
(0.00169201 -0.00157794 -6.94534e-06)
(0.00169609 -0.00158259 -7.01198e-06)
(0.00170065 -0.00158143 -6.9897e-06)
(0.00169895 -0.00158649 -6.90895e-06)
(0.0016967 -0.00159106 -6.92896e-06)
(0.00170173 -0.00159034 -7.07598e-06)
(0.00170056 -0.0015958 -7.21671e-06)
(0.00169834 -0.00159412 -7.31813e-06)
(0.00170225 -0.00159852 -7.3496e-06)
(0.00170007 -0.00160292 -7.3146e-06)
(0.00169839 -0.00160169 -7.19389e-06)
(0.00170276 -0.00160649 -6.96905e-06)
(0.00170061 -0.00161077 -6.73257e-06)
(0.00169845 -0.00160907 -6.56334e-06)
(0.00170225 -0.00160735 -6.45087e-06)
(0.00170063 -0.00161204 -6.40332e-06)
(0.00170486 -0.00161669 -6.276e-06)
(0.00170811 -0.00161452 -6.01733e-06)
(0.00169966 -0.00161234 -5.7291e-06)
(0.00170334 -0.00161645 -5.53371e-06)
(0.00170704 -0.00161477 -5.48329e-06)
(0.00169921 -0.00161881 -5.45528e-06)
(0.00170284 -0.00162287 -5.39722e-06)
(0.00170601 -0.0016207 -5.35572e-06)
(0.00170345 -0.00162422 -5.40734e-06)
(0.00170704 -0.00162816 -5.4468e-06)
(0.00171012 -0.00163721 -5.35594e-06)
(0.0017076 -0.00164063 -5.14206e-06)
(0.00170555 -0.00164443 -4.94734e-06)
(0.00170308 -0.00164778 -4.79428e-06)
(0.00170562 -0.0016506 -4.52751e-06)
(0.00170866 -0.00165936 -4.14888e-06)
(0.00170618 -0.00166257 -3.77635e-06)
(0.0017087 -0.00166531 -3.62677e-06)
(0.00170627 -0.00166846 -3.69588e-06)
(0.00170966 -0.00167204 -3.81814e-06)
(0.00171261 -0.00167514 -3.93351e-06)
(0.00170926 -0.00167731 -4.0382e-06)
(0.00171126 -0.00167947 -4.13341e-06)
(0.00170887 -0.00168249 -4.2309e-06)
(0.00170648 -0.00168548 -4.33331e-06)
(0.00170891 -0.001688 -4.39662e-06)
(0.00171131 -0.00168531 -4.30403e-06)
(0.00171369 -0.00168779 -4.1239e-06)
(0.00171605 -0.00169544 -3.99241e-06)
(0.00171283 -0.00169232 -3.84535e-06)
(0.00170962 -0.0016943 -3.64558e-06)
(0.00171196 -0.00169673 -3.4186e-06)
(0.00171428 -0.00169406 -3.32738e-06)
(0.00171658 -0.00170147 -3.48974e-06)
(0.00171344 -0.00170842 -3.79418e-06)
(0.00170987 -0.0017049 -4.11576e-06)
(0.00171173 -0.00170676 -4.39467e-06)
(0.001714 -0.001714 -4.53688e-06)
(0.00171583 -0.00172073 -4.44129e-06)
(0.00171722 -0.00172212 -4.23652e-06)
(0.00171415 -0.00172387 -4.09507e-06)
(0.00171151 -0.00173091 -4.03396e-06)
(0.00171291 -0.00173221 -4.04819e-06)
(0.00171387 -0.00173308 -4.05668e-06)
(0.00171565 -0.00173476 -3.86657e-06)
(0.00171741 -0.00173644 -3.57781e-06)
(0.00171402 -0.00173769 -3.41395e-06)
(0.00171065 -0.00173892 -3.40706e-06)
(0.00171669 -0.00174483 -3.55978e-06)
(0.00171803 -0.00174604 -3.78125e-06)
(0.00171468 -0.00174256 -3.93578e-06)
(0.001716 -0.00174375 -4.00549e-06)
(0.00171731 -0.00174493 -4.12043e-06)
(0.00171403 -0.0017461 -4.2986e-06)
(0.00171493 -0.00174686 -4.38769e-06)
(0.00171546 -0.00174722 -4.27077e-06)
(0.00171634 -0.00175247 -3.98863e-06)
(0.00171763 -0.00175361 -3.76362e-06)
(0.00171441 -0.00175469 -3.85821e-06)
(0.0017153 -0.00175986 -4.02314e-06)
(0.00171581 -0.00176014 -3.96382e-06)
(0.0017163 -0.00176482 -3.81664e-06)
(0.00171717 -0.00176549 -3.72862e-06)
(0.00171404 -0.0017665 -3.7821e-06)
(0.00171452 -0.00177545 -3.91193e-06)
(0.00171899 -0.00177961 -3.93169e-06)
(0.00171553 -0.00178017 -3.73309e-06)
(0.00171636 -0.00178073 -3.47589e-06)
(0.00172075 -0.00178479 -3.39022e-06)
(0.0017166 -0.00179306 -3.41617e-06)
(0.0017132 -0.0017978 -3.3884e-06)
(0.00171825 -0.00180247 -3.28085e-06)
(0.00171837 -0.00180637 -3.16441e-06)
(0.00171429 -0.00181021 -3.12408e-06)
(0.00171855 -0.00181817 -3.16305e-06)
(0.00171866 -0.00182606 -3.13998e-06)
(0.00171499 -0.00183015 -2.93269e-06)
(0.0017151 -0.0018338 -2.57113e-06)
(0.00171522 -0.00184151 -2.09877e-06)
(0.00171937 -0.00184509 -1.68731e-06)
(0.00171948 -0.00184863 -1.49354e-06)
(0.00171555 -0.00185616 -1.50649e-06)
(0.00171531 -0.00185926 -1.69102e-06)
(0.00171508 -0.00185834 -1.9694e-06)
(0.00171485 -0.00186533 -2.24525e-06)
(0.00171496 -0.00186873 -2.40875e-06)
(0.00171899 -0.00186812 -2.42157e-06)
(0.00171876 -0.00187109 -2.37505e-06)
(0.00171429 -0.00186978 -2.34017e-06)
(0.00171759 -0.00186847 -2.31338e-06)
(0.0017177 -0.00187174 -2.28004e-06)
(0.00171363 -0.00187082 -2.22741e-06)
(0.00171657 -0.00187296 -2.14394e-06)
(0.00171982 -0.00187548 -2.04264e-06)
(0.00171581 -0.00187452 -1.97283e-06)
(0.00171524 -0.00188075 -1.88469e-06)
(0.00171846 -0.00188319 -1.67011e-06)
(0.00171823 -0.00188966 -1.37566e-06)
(0.00171736 -0.0018954 -1.12785e-06)
(0.0017125 -0.0019007 -9.59752e-07)
(0.00171197 -0.00190669 -8.59731e-07)
(0.00171909 -0.00190928 -9.36121e-07)
(0.00171856 -0.00191516 -1.11035e-06)
(0.00171377 -0.00191667 -1.17031e-06)
(0.00171624 -0.00192174 -1.09625e-06)
(0.00171542 -0.00192715 -9.29713e-07)
(0.00171458 -0.00192891 -7.64576e-07)
(0.00171733 -0.00193067 -7.14629e-07)
(0.00171621 -0.00193205 -7.71308e-07)
(0.00171509 -0.00193344 -7.78383e-07)
(0.00171429 -0.00193864 -7.01239e-07)
(0.00171697 -0.00194382 -6.63048e-07)
(0.00171588 -0.00194511 -6.18392e-07)
(0.00171448 -0.00194608 -4.46199e-07)
(0.00171684 -0.00195079 -1.75801e-07)
(0.00171576 -0.0019589 4.43484e-08)
(0.00171438 -0.00196319 4.44791e-08)
(0.00171303 -0.00196743 -1.59117e-07)
(0.00171168 -0.001975 -2.93714e-07)
(0.00171399 -0.0019795 -1.85086e-07)
(0.00171629 -0.00198059 8.99478e-08)
(0.00171467 -0.00198435 4.45667e-07)
(0.00171306 -0.00199137 5.96517e-07)
(0.00171174 -0.00199539 3.07301e-07)
(0.00171344 -0.001999 -7.844e-08)
(0.00171513 -0.00200588 -1.89541e-07)
(0.00171382 -0.00200975 -9.44649e-08)
(0.00171225 -0.00201327 -1.22762e-07)
(0.0017107 -0.00201675 -3.95865e-07)
(0.00171236 -0.002017 -6.53964e-07)
(0.00171374 -0.00201691 -8.29519e-07)
(0.0017122 -0.00202033 -9.84616e-07)