/*--------------------------------*- C++ -*----------------------------------*\
| =========                 |                                                 |
| \\      /  F ield         | OpenFOAM: The Open Source CFD Toolbox           |
|  \\    /   O peration     | Version:  v1806                                 |
|   \\  /    A nd           | Web:      www.OpenFOAM.com                      |
|    \\/     M anipulation  |                                                 |
\*---------------------------------------------------------------------------*/
FoamFile
{
    version     2.0;
    format      ascii;
    class       volScalarField;
    location    "10000";
    object      epsilon;
}
// * * * * * * * * * * * * * * * * * * * * * * * * * * * * * * * * * * * * * //

dimensions      [0 2 -3 0 0 0 0];


internalField   nonuniform List<scalar> 
1025
(
0.0130927
0.0401997
0.0676739
0.0929755
0.110289
0.116578
0.11615
0.113287
0.109878
0.106551
0.103473
0.100668
0.0981161
0.0957866
0.0936507
0.091683
0.0898617
0.0881686
0.0865885
0.0851088
0.0837186
0.0824087
0.0811714
0.0799998
0.0788881
0.0778313
0.0768248
0.0758647
0.0749476
0.0740703
0.0732299
0.0724241
0.0716506
0.0709073
0.0701924
0.0695042
0.0688413
0.0682021
0.0675854
0.06699
0.0664148
0.0658588
0.0653211
0.0648008
0.0642971
0.0638092
0.0633364
0.0628781
0.0624337
0.0620025
0.0615841
0.061178
0.0607836
0.0604005
0.0600283
0.0596665
0.0593149
0.058973
0.0586405
0.058317
0.0580023
0.0576961
0.0573981
0.057108
0.0568256
0.0565506
0.0562829
0.0560221
0.055768
0.0555206
0.0552795
0.0550447
0.0548158
0.0545928
0.0543755
0.0541638
0.0539574
0.0537563
0.0535602
0.0533691
0.0531829
0.0530014
0.0528245
0.0526521
0.052484
0.0523203
0.0521607
0.0520051
0.0518535
0.0517058
0.0515619
0.0514217
0.0512851
0.051152
0.0510224
0.0508961
0.0507732
0.0506535
0.0505369
0.0504235
0.0503131
0.0502056
0.0501011
0.0499994
0.0499004
0.0498042
0.0497107
0.0496198
0.0495315
0.0494456
0.0493623
0.0492814
0.0492028
0.0491265
0.0490526
0.0489809
0.0489113
0.048844
0.0487787
0.0487155
0.0486544
0.0485952
0.048538
0.0484828
0.0484294
0.0483779
0.0483282
0.0482803
0.0482341
0.0481897
0.048147
0.048106
0.0480666
0.0480288
0.0479926
0.0479579
0.0479248
0.0478932
0.047863
0.0478343
0.047807
0.0477812
0.0477567
0.0477336
0.0477118
0.0476913
0.0476721
0.0476542
0.0476375
0.047622
0.0476078
0.0475947
0.0475829
0.0475721
0.0475625
0.047554
0.0475466
0.0475402
0.047535
0.0475307
0.0475275
0.0475253
0.0475241
0.0475238
0.0475245
0.0475262
0.0475287
0.0475322
0.0475366
0.0475419
0.047548
0.047555
0.0475628
0.0475715
0.047581
0.0475912
0.0476023
0.0476141
0.0476267
0.0476401
0.0476541
0.0476689
0.0476844
0.0477006
0.0477175
0.0477351
0.0477534
0.0477723
0.0477918
0.047812
0.0478328
0.0478542
0.0478762
0.0478988
0.047922
0.0479457
0.0479701
0.0479949
0.0480203
0.0480463
0.0480728
0.0480997
0.0481272
0.0481552
0.0481837
0.0482126
0.0482421
0.0482719
0.0483023
0.0483331
0.0483643
0.0483959
0.048428
0.0484605
0.0484934
0.0485267
0.0485603
0.0485944
0.0486288
0.0486636
0.0486988
0.0487343
0.0487702
0.0488064
0.0488429
0.0488798
0.048917
0.0489545
0.0489923
0.0490304
0.0490688
0.0491075
0.0491464
0.0491857
0.0492252
0.049265
0.049305
0.0493453
0.0493858
0.0494265
0.0494675
0.0495088
0.0495502
0.0495919
0.0496337
0.0496758
0.0497181
0.0497606
0.0498032
0.0498461
0.0498891
0.0499323
0.0499757
0.0500192
0.0500629
0.0501068
0.0501508
0.0501949
0.0502392
0.0502836
0.0503282
0.0503728
0.0504177
0.0504626
0.0505076
0.0505528
0.050598
0.0506434
0.0506888
0.0507344
0.05078
0.0508258
0.0508716
0.0509174
0.0509634
0.0510094
0.0510555
0.0511016
0.0511479
0.0511941
0.0512404
0.0512868
0.0513332
0.0513797
0.0514261
0.0514726
0.0515192
0.0515658
0.0516124
0.051659
0.0517056
0.0517522
0.0517989
0.0518456
0.0518922
0.0519389
0.0519856
0.0520322
0.0520789
0.0521255
0.0521721
0.0522187
0.0522653
0.0523119
0.0523584
0.0524049
0.0524514
0.0524978
0.0525443
0.0525906
0.0526369
0.0526832
0.0527295
0.0527756
0.0528218
0.0528678
0.0529139
0.0529598
0.0530057
0.0530515
0.0530973
0.053143
0.0531886
0.0532342
0.0532796
0.053325
0.0533704
0.0534156
0.0534607
0.0535058
0.0535508
0.0535956
0.0536404
0.0536851
0.0537297
0.0537742
0.0538186
0.0538628
0.053907
0.0539511
0.053995
0.0540389
0.0540826
0.0541262
0.0541697
0.0542131
0.0542563
0.0542995
0.0543425
0.0543853
0.0544281
0.0544707
0.0545132
0.0545555
0.0545978
0.0546398
0.0546818
0.0547236
0.0547652
0.0548067
0.0548481
0.0548893
0.0549304
0.0549713
0.055012
0.0550526
0.0550931
0.0551334
0.0551735
0.0552135
0.0552533
0.0552929
0.0553324
0.0553717
0.0554108
0.0554498
0.0554886
0.0555272
0.0555657
0.0556039
0.055642
0.0556799
0.0557177
0.0557552
0.0557926
0.0558297
0.0558667
0.0559035
0.0559402
0.0559766
0.0560128
0.0560488
0.0560847
0.0561203
0.0561558
0.056191
0.056226
0.0562609
0.0562955
0.0563299
0.0563642
0.0563982
0.056432
0.0564656
0.0564989
0.0565321
0.0565651
0.0565978
0.0566303
0.0566626
0.0566947
0.0567265
0.0567581
0.0567895
0.0568207
0.0568516
0.0568824
0.0569128
0.0569431
0.0569731
0.0570029
0.0570324
0.0570617
0.0570908
0.0571196
0.0571482
0.0571766
0.0572046
0.0572325
0.0572601
0.0572874
0.0573145
0.0573414
0.057368
0.0573943
0.0574204
0.0574462
0.0574718
0.0574971
0.0575221
0.0575469
0.0575714
0.0575957
0.0576196
0.0576433
0.0576668
0.0576899
0.0577128
0.0577354
0.0577578
0.0577798
0.0578016
0.0578231
0.0578443
0.0578652
0.0578858
0.0579062
0.0579263
0.057946
0.0579655
0.0579847
0.0580036
0.0580222
0.0580404
0.0580584
0.0580761
0.0580935
0.0581106
0.0581274
0.0581438
0.05816
0.0581758
0.0581913
0.0582066
0.0582215
0.058236
0.0582503
0.0582642
0.0582778
0.0582911
0.0583041
0.0583167
0.058329
0.058341
0.0583527
0.058364
0.0583749
0.0583856
0.0583959
0.0584058
0.0584154
0.0584247
0.0584336
0.0584421
0.0584504
0.0584582
0.0584657
0.0584729
0.0584797
0.0584861
0.0584922
0.0584979
0.0585033
0.0585082
0.0585129
0.0585171
0.058521
0.0585245
0.0585276
0.0585303
0.0585327
0.0585347
0.0585363
0.0585375
0.0585384
0.0585388
0.0585389
0.0585386
0.0585378
0.0585367
0.0585352
0.0585332
0.0585309
0.0585282
0.058525
0.0585215
0.0585175
0.0585132
0.0585084
0.0585032
0.0584976
0.0584915
0.0584851
0.0584782
0.0584709
0.0584631
0.0584549
0.0584463
0.0584373
0.0584278
0.0584179
0.0584076
0.0583968
0.0583856
0.0583739
0.0583618
0.0583492
0.0583362
0.0583227
0.0583088
0.0582944
0.0582796
0.0582643
0.0582485
0.0582323
0.0582156
0.0581984
0.0581808
0.0581627
0.0581441
0.0581251
0.0581056
0.0580856
0.0580651
0.0580441
0.0580226
0.0580007
0.0579783
0.0579553
0.0579319
0.057908
0.0578836
0.0578587
0.0578333
0.0578074
0.057781
0.0577541
0.0577267
0.0576988
0.0576703
0.0576414
0.0576119
0.0575819
0.0575514
0.0575204
0.0574889
0.0574568
0.0574242
0.0573911
0.0573574
0.0573233
0.0572886
0.0572533
0.0572175
0.0571812
0.0571444
0.057107
0.057069
0.0570306
0.0569916
0.056952
0.0569119
0.0568712
0.05683
0.0567882
0.0567459
0.056703
0.0566595
0.0566155
0.0565709
0.0565258
0.0564801
0.0564339
0.056387
0.0563396
0.0562917
0.0562431
0.056194
0.0561443
0.056094
0.0560432
0.0559918
0.0559398
0.0558872
0.055834
0.0557803
0.0557259
0.055671
0.0556155
0.0555594
0.0555027
0.0554454
0.0553876
0.0553291
0.05527
0.0552104
0.0551501
0.0550893
0.0550278
0.0549657
0.0549031
0.0548398
0.054776
0.0547115
0.0546465
0.0545808
0.0545145
0.0544476
0.05438
0.054312
0.0542433
0.0541739
0.054104
0.0540334
0.0539622
0.0538905
0.053818
0.053745
0.0536714
0.0535972
0.0535223
0.0534468
0.0533707
0.053294
0.0532166
0.0531387
0.0530601
0.0529809
0.0529011
0.0528207
0.0527396
0.0526579
0.0525756
0.0524927
0.0524091
0.0523249
0.0522401
0.0521547
0.0520686
0.051982
0.0518947
0.0518068
0.0517182
0.0516291
0.0515393
0.0514489
0.0513579
0.0512663
0.051174
0.0510811
0.0509875
0.0508934
0.0507987
0.0507033
0.0506073
0.0505107
0.0504134
0.0503156
0.0502171
0.050118
0.0500182
0.049918
0.049817
0.0497154
0.0496132
0.0495104
0.049407
0.049303
0.0491984
0.0490931
0.0489873
0.0488809
0.0487738
0.0486662
0.0485579
0.048449
0.0483395
0.0482294
0.0481188
0.0480075
0.0478956
0.0477831
0.04767
0.0475564
0.0474421
0.0473272
0.0472118
0.0470958
0.0469791
0.0468619
0.0467441
0.0466258
0.0465068
0.0463873
0.0462672
0.0461465
0.0460252
0.0459034
0.045781
0.045658
0.0455345
0.0454104
0.0452858
0.0451606
0.0450348
0.0449085
0.0447816
0.0446542
0.0445262
0.0443977
0.0442686
0.044139
0.0440089
0.0438782
0.043747
0.0436152
0.043483
0.0433502
0.0432169
0.043083
0.0429486
0.0428138
0.0426785
0.0425426
0.0424062
0.0422693
0.0421319
0.041994
0.0418556
0.0417167
0.0415774
0.0414375
0.0412972
0.0411564
0.0410152
0.0408734
0.0407312
0.0405885
0.0404454
0.0403018
0.0401578
0.0400133
0.0398684
0.0397231
0.0395772
0.039431
0.0392843
0.0391372
0.0389897
0.0388418
0.0386934
0.0385447
0.0383956
0.038246
0.038096
0.0379457
0.037795
0.0376438
0.0374923
0.0373405
0.0371882
0.0370356
0.0368826
0.0367293
0.0365756
0.0364216
0.0362673
0.0361126
0.0359576
0.0358022
0.0356466
0.0354906
0.0353343
0.0351777
0.0350208
0.0348636
0.034706
0.0345482
0.0343902
0.0342318
0.0340732
0.0339144
0.0337553
0.0335959
0.0334362
0.0332764
0.0331163
0.032956
0.0327954
0.0326346
0.0324737
0.0323125
0.0321511
0.0319895
0.0318277
0.0316658
0.0315037
0.0313414
0.031179
0.0310164
0.0308536
0.0306908
0.0305277
0.0303645
0.0302013
0.0300379
0.0298744
0.0297108
0.0295471
0.0293834
0.0292196
0.0290556
0.0288916
0.0287276
0.0285635
0.0283994
0.0282352
0.028071
0.0279068
0.0277426
0.0275784
0.0274142
0.02725
0.0270858
0.0269216
0.0267575
0.0265934
0.0264294
0.0262655
0.0261016
0.0259378
0.0257741
0.0256105
0.025447
0.0252836
0.0251203
0.0249571
0.0247942
0.0246313
0.0244686
0.0243061
0.0241438
0.0239816
0.0238197
0.0236579
0.0234964
0.0233351
0.023174
0.0230132
0.0228527
0.0226923
0.0225323
0.0223726
0.0222132
0.0220541
0.0218952
0.0217368
0.0215787
0.0214209
0.0212635
0.0211064
0.0209497
0.0207935
0.0206376
0.0204822
0.0203272
0.0201726
0.0200185
0.0198649
0.0197117
0.019559
0.0194068
0.0192551
0.019104
0.0189533
0.0188033
0.0186538
0.0185049
0.0183565
0.0182088
0.0180616
0.0179151
0.0177692
0.017624
0.0174794
0.0173355
0.0171923
0.0170498
0.016908
0.016767
0.0166266
0.0164871
0.0163483
0.0162103
0.0160731
0.0159367
0.0158011
0.0156664
0.0155325
0.0153995
0.0152674
0.0151362
0.0150058
0.0148765
0.014748
0.0146205
0.0144939
0.0143684
0.0142438
0.0141203
0.0139978
0.0138763
0.0137559
0.0136365
0.0135182
0.0134011
0.013285
0.0131701
0.0130563
0.0129436
0.0128322
0.0127219
0.0126128
0.012505
0.0123984
0.012293
0.0121889
0.0120861
0.0119845
0.0118843
0.0117854
0.0116878
0.0115915
0.0114967
0.0114032
0.0113111
0.0112204
0.0111312
0.0110434
0.010957
0.0108721
0.0107887
0.0107068
0.0106265
0.0105476
0.0104703
0.0103946
0.0103204
0.0102478
0.0101769
0.0101075
0.0100399
0.00997382
0.00990947
0.0098468
0.00978584
0.00972662
0.00966913
0.0096134
0.00955944
0.00950728
0.00945694
0.00940842
0.00936176
0.00931697
0.00927408
0.00923309
0.00919404
0.00915693
0.0091218
0.00908867
0.00905755
0.00902847
0.00900146
0.00897655
0.00895375
0.00893309
0.00891461
0.00889833
0.00888427
0.00887247
0.00886295
0.00885575
0.0088509
0.00884844
)
;

boundaryField
{
    INLET
    {
        type            cyclic;
    }
    OUTLET
    {
        type            cyclic;
    }
    CENTER
    {
        type            symmetryPlane;
    }
    WALL
    {
        type            fixedValue;
        value           uniform 1e-08;
    }
    frontAndBackPlanes
    {
        type            empty;
    }
}


// ************************************************************************* //
