/*--------------------------------*- C++ -*----------------------------------*\
| =========                 |                                                 |
| \\      /  F ield         | OpenFOAM: The Open Source CFD Toolbox           |
|  \\    /   O peration     | Version:  v1806                                 |
|   \\  /    A nd           | Web:      www.OpenFOAM.com                      |
|    \\/     M anipulation  |                                                 |
\*---------------------------------------------------------------------------*/
FoamFile
{
    version     2.0;
    format      ascii;
    class       volVectorField;
    location    "10000";
    object      grad(p);
}
// * * * * * * * * * * * * * * * * * * * * * * * * * * * * * * * * * * * * * //

dimensions      [0 1 -2 0 0 0 0];


internalField   nonuniform List<vector> 
1025
(
(6.10193e-32 1.29737e-12 0)
(0 1.57366e-12 0)
(0 2.24985e-13 0)
(-2.40664e-31 -8.13526e-14 0)
(0 -5.01461e-15 0)
(0 7.43625e-14 0)
(-2.37294e-31 1.1003e-13 0)
(0 1.3304e-13 0)
(2.35075e-31 1.57495e-13 0)
(0 1.8275e-13 0)
(0 2.07009e-13 0)
(0 2.30166e-13 0)
(0 2.52556e-13 0)
(-4.59245e-31 2.73983e-13 0)
(-4.57091e-31 2.94545e-13 0)
(-4.54957e-31 3.14737e-13 0)
(-4.52821e-31 3.34384e-13 0)
(0 3.53517e-13 0)
(0 3.72253e-13 0)
(-4.46479e-31 3.90288e-13 0)
(0 4.0778e-13 0)
(4.4231e-31 4.25016e-13 0)
(8.80479e-31 4.41797e-13 0)
(0 4.57855e-13 0)
(8.72231e-31 4.73945e-13 0)
(0 4.89851e-13 0)
(0 5.04779e-13 0)
(-8.59987e-31 5.19099e-13 0)
(0 5.3347e-13 0)
(-1.704e-30 5.47527e-13 0)
(0 5.60963e-13 0)
(8.44161e-31 5.74455e-13 0)
(0 5.87478e-13 0)
(0 5.9985e-13 0)
(0 6.12234e-13 0)
(0 6.24519e-13 0)
(0 6.36406e-13 0)
(0 6.48038e-13 0)
(0 6.59185e-13 0)
(0 6.6986e-13 0)
(0 6.80601e-13 0)
(-1.61061e-30 6.91087e-13 0)
(0 7.00936e-13 0)
(0 7.11226e-13 0)
(-3.17634e-30 7.21369e-13 0)
(-1.5805e-30 7.30711e-13 0)
(-1.57323e-30 7.3964e-13 0)
(0 7.48539e-13 0)
(0 7.57652e-13 0)
(0 7.6625e-13 0)
(0 7.74542e-13 0)
(3.07382e-30 7.83214e-13 0)
(0 7.91848e-13 0)
(-4.5678e-30 7.98889e-13 0)
(0 8.05731e-13 0)
(0 8.1358e-13 0)
(0 8.21205e-13 0)
(0 8.28201e-13 0)
(0 8.35018e-13 0)
(0 8.41706e-13 0)
(-2.94622e-30 8.47951e-13 0)
(0 8.54359e-13 0)
(0 8.60625e-13 0)
(0 8.6659e-13 0)
(0 8.72254e-13 0)
(0 8.78302e-13 0)
(0 8.84534e-13 0)
(0 8.90378e-13 0)
(-2.83732e-30 8.95513e-13 0)
(-2.82454e-30 8.99894e-13 0)
(-2.81082e-30 9.04159e-13 0)
(-5.59655e-30 9.08613e-13 0)
(5.56962e-30 9.13694e-13 0)
(0 9.191e-13 0)
(-5.51855e-30 9.23591e-13 0)
(0 9.27209e-13 0)
(0 9.31301e-13 0)
(0 9.35624e-13 0)
(0 9.39641e-13 0)
(0 9.43453e-13 0)
(0 9.47331e-13 0)
(0 9.50608e-13 0)
(0 9.53562e-13 0)
(0 9.56936e-13 0)
(0 9.60338e-13 0)
(0 9.63546e-13 0)
(0 9.66725e-13 0)
(-5.19107e-30 9.69298e-13 0)
(0 9.71742e-13 0)
(0 9.74744e-13 0)
(0 9.77676e-13 0)
(-5.09441e-30 9.79607e-13 0)
(0 9.81281e-13 0)
(0 9.83684e-13 0)
(0 9.86435e-13 0)
(-4.99878e-30 9.88671e-13 0)
(0 9.89734e-13 0)
(-4.95271e-30 9.90971e-13 0)
(0 9.92436e-13 0)
(-9.81336e-30 9.93192e-13 0)
(9.76717e-30 9.95237e-13 0)
(0 9.97577e-13 0)
(0 9.98683e-13 0)
(0 1.00009e-12 0)
(0 1.00188e-12 0)
(0 1.00261e-12 0)
(0 1.00163e-12 0)
(0 1.00298e-12 0)
(0 1.00592e-12 0)
(0 1.00725e-12 0)
(-9.31805e-30 1.00717e-12 0)
(0 1.00728e-12 0)
(0 1.007e-12 0)
(9.1886e-30 1.00703e-12 0)
(9.14531e-30 1.00881e-12 0)
(0 1.0092e-12 0)
(0 1.01026e-12 0)
(0 1.01159e-12 0)
(0 1.01105e-12 0)
(-8.93355e-30 1.01036e-12 0)
(0 1.01089e-12 0)
(0 1.01063e-12 0)
(-8.80804e-30 1.0089e-12 0)
(0 1.009e-12 0)
(0 1.01022e-12 0)
(-8.68475e-30 1.01076e-12 0)
(0 1.00961e-12 0)
(0 1.00733e-12 0)
(8.56243e-30 1.00806e-12 0)
(0 1.00887e-12 0)
(0 1.00771e-12 0)
(-8.44351e-30 1.00686e-12 0)
(0 1.00622e-12 0)
(0 1.00538e-12 0)
(0 1.00425e-12 0)
(-8.28656e-30 1.00352e-12 0)
(0 1.00296e-12 0)
(-8.20858e-30 1.00092e-12 0)
(0 9.98642e-13 0)
(8.13205e-30 9.99184e-13 0)
(0 9.98952e-13 0)
(0 9.97436e-13 0)
(0 9.98491e-13 0)
(-1.59622e-29 9.9743e-13 0)
(-1.58863e-29 9.93276e-13 0)
(0 9.93095e-13 0)
(0 9.93324e-13 0)
(0 9.90883e-13 0)
(0 9.89842e-13 0)
(0 9.88611e-13 0)
(0 9.87051e-13 0)
(0 9.86785e-13 0)
(-1.53007e-29 9.8489e-13 0)
(0 9.82543e-13 0)
(0 9.81359e-13 0)
(0 9.79672e-13 0)
(1.50163e-29 9.78397e-13 0)
(0 9.76615e-13 0)
(2.97505e-29 9.77779e-13 0)
(0 9.77557e-13 0)
(0 9.72664e-13 0)
(0 9.7141e-13 0)
(0 9.70934e-13 0)
(0 9.68823e-13 0)
(0 9.67046e-13 0)
(0 9.6572e-13 0)
(0 9.6304e-13 0)
(0 9.60773e-13 0)
(0 9.60723e-13 0)
(0 9.59272e-13 0)
(0 9.55022e-13 0)
(0 9.52362e-13 0)
(0 9.52958e-13 0)
(0 9.52477e-13 0)
(0 9.49183e-13 0)
(-1.37253e-29 9.454e-13 0)
(-1.36785e-29 9.4221e-13 0)
(1.36012e-29 9.42702e-13 0)
(0 9.42772e-13 0)
(1.34794e-29 9.40599e-13 0)
(-1.34192e-29 9.3823e-13 0)
(0 9.35648e-13 0)
(0 9.34024e-13 0)
(-1.32275e-29 9.29465e-13 0)
(0 9.27341e-13 0)
(0 9.27112e-13 0)
(1.30412e-29 9.25751e-13 0)
(0 9.23707e-13 0)
(0 9.20384e-13 0)
(0 9.18299e-13 0)
(0 9.16976e-13 0)
(-1.27511e-29 9.14546e-13 0)
(0 9.1141e-13 0)
(-1.26307e-29 9.07823e-13 0)
(-2.51034e-29 9.03843e-13 0)
(1.25125e-29 9.02874e-13 0)
(0 9.0405e-13 0)
(0 9.00956e-13 0)
(0 8.95493e-13 0)
(2.45404e-29 8.94621e-13 0)
(0 8.94483e-13 0)
(0 8.9159e-13 0)
(0 8.87504e-13 0)
(0 8.86703e-13 0)
(-2.39782e-29 8.86681e-13 0)
(-2.38594e-29 8.82261e-13 0)
(0 8.78646e-13 0)
(0 8.76671e-13 0)
(0 8.74455e-13 0)
(0 8.73354e-13 0)
(0 8.71111e-13 0)
(0 8.66447e-13 0)
(0 8.64564e-13 0)
(0 8.62559e-13 0)
(2.28624e-29 8.60072e-13 0)
(0 8.59393e-13 0)
(0 8.56574e-13 0)
(0 8.53433e-13 0)
(0 8.51331e-13 0)
(0 8.49861e-13 0)
(0 8.47522e-13 0)
(0 8.43874e-13 0)
(0 8.40128e-13 0)
(0 8.37112e-13 0)
(0 8.33356e-13 0)
(2.1708e-29 8.32027e-13 0)
(0 8.32138e-13 0)
(0 8.31206e-13 0)
(-2.14183e-29 8.26928e-13 0)
(0 8.21024e-13 0)
(0 8.19644e-13 0)
(0 8.18525e-13 0)
(0 8.16012e-13 0)
(0 8.1521e-13 0)
(-2.08254e-29 8.15125e-13 0)
(-2.07357e-29 8.08679e-13 0)
(0 8.02847e-13 0)
(0 8.03453e-13 0)
(0 8.04334e-13 0)
(-2.03329e-29 8.01525e-13 0)
(0 7.95009e-13 0)
(0 7.92229e-13 0)
(-2.00618e-29 7.88141e-13 0)
(0 7.81858e-13 0)
(3.97591e-29 7.85432e-13 0)
(0 7.8772e-13 0)
(0 7.82252e-13 0)
(0 7.77572e-13 0)
(0 7.74759e-13 0)
(1.94146e-29 7.76302e-13 0)
(0 7.73331e-13 0)
(0 7.66598e-13 0)
(0 7.64215e-13 0)
(0 7.64278e-13 0)
(0 7.64723e-13 0)
(-1.88669e-29 7.61358e-13 0)
(0 7.57355e-13 0)
(-3.73822e-29 7.55297e-13 0)
(0 7.54997e-13 0)
(0 7.51875e-13 0)
(0 7.45378e-13 0)
(0 7.42571e-13 0)
(-3.65036e-29 7.40718e-13 0)
(0 7.36362e-13 0)
(3.61745e-29 7.34121e-13 0)
(0 7.33056e-13 0)
(0 7.31121e-13 0)
(0 7.30071e-13 0)
(0 7.29048e-13 0)
(0 7.23774e-13 0)
(0 7.18507e-13 0)
(0 7.18061e-13 0)
(0 7.18504e-13 0)
(0 7.1625e-13 0)
(-3.45149e-29 7.09629e-13 0)
(0 7.0636e-13 0)
(0 7.07946e-13 0)
(0 7.0542e-13 0)
(0 7.02914e-13 0)
(0 7.02578e-13 0)
(0 6.94228e-13 0)
(0 6.87055e-13 0)
(0 6.8859e-13 0)
(0 6.87078e-13 0)
(0 6.85402e-13 0)
(-3.27762e-29 6.84206e-13 0)
(-6.52415e-29 6.75953e-13 0)
(3.24668e-29 6.74142e-13 0)
(0 6.79385e-13 0)
(-3.21632e-29 6.75732e-13 0)
(0 6.66419e-13 0)
(0 6.61564e-13 0)
(0 6.62249e-13 0)
(3.15519e-29 6.64823e-13 0)
(0 6.63798e-13 0)
(0 6.6017e-13 0)
(0 6.58412e-13 0)
(-3.09834e-29 6.54814e-13 0)
(0 6.51117e-13 0)
(0 6.50655e-13 0)
(0 6.47172e-13 0)
(0 6.43561e-13 0)
(0 6.43002e-13 0)
(0 6.41256e-13 0)
(0 6.38336e-13 0)
(0 6.3545e-13 0)
(0 6.36746e-13 0)
(-2.95569e-29 6.34948e-13 0)
(0 6.27242e-13 0)
(0 6.24441e-13 0)
(0 6.2507e-13 0)
(0 6.20888e-13 0)
(0 6.16271e-13 0)
(0 6.15198e-13 0)
(0 6.13454e-13 0)
(0 6.11249e-13 0)
(0 6.09516e-13 0)
(0 6.07676e-13 0)
(0 6.01988e-13 0)
(2.79282e-29 5.99769e-13 0)
(2.78153e-29 6.04368e-13 0)
(0 6.02059e-13 0)
(0 5.95828e-13 0)
(0 5.93127e-13 0)
(0 5.91451e-13 0)
(5.43127e-29 5.93005e-13 0)
(0 5.90254e-13 0)
(0 5.85839e-13 0)
(0 5.873e-13 0)
(0 5.83949e-13 0)
(0 5.79631e-13 0)
(0 5.80053e-13 0)
(0 5.76805e-13 0)
(0 5.73139e-13 0)
(0 5.71975e-13 0)
(-5.1828e-29 5.64288e-13 0)
(5.15782e-29 5.62598e-13 0)
(0 5.66273e-13 0)
(0 5.63486e-13 0)
(-5.08698e-29 5.56618e-13 0)
(0 5.51374e-13 0)
(0 5.51307e-13 0)
(0 5.52274e-13 0)
(-4.99204e-29 5.52215e-13 0)
(0 5.45958e-13 0)
(0 5.41694e-13 0)
(0 5.41591e-13 0)
(0 5.4056e-13 0)
(-4.87577e-29 5.32348e-13 0)
(4.85365e-29 5.26083e-13 0)
(0 5.23949e-13 0)
(0 5.23921e-13 0)
(0 5.31927e-13 0)
(0 5.33815e-13 0)
(0 5.24744e-13 0)
(0 5.17616e-13 0)
(0 5.19428e-13 0)
(0 5.18403e-13 0)
(0 5.16403e-13 0)
(0 5.12394e-13 0)
(0 5.06379e-13 0)
(0 5.08221e-13 0)
(0 5.10074e-13 0)
(0 5.0704e-13 0)
(0 5.04023e-13 0)
(0 5.02939e-13 0)
(0 5.05641e-13 0)
(-4.46024e-29 5.02616e-13 0)
(-8.87525e-29 4.86482e-13 0)
(0 4.84529e-13 0)
(0 4.96524e-13 0)
(0 5.02764e-13 0)
(-8.71067e-29 4.8962e-13 0)
(0 4.72012e-13 0)
(4.31629e-29 4.80194e-13 0)
(0 4.87377e-13 0)
(0 4.86277e-13 0)
(-8.51052e-29 4.81525e-13 0)
(0 4.74991e-13 0)
(0 4.75771e-13 0)
(-4.19593e-29 4.72917e-13 0)
(0 4.69099e-13 0)
(0 4.69757e-13 0)
(0 4.70498e-13 0)
(-8.23751e-29 4.66844e-13 0)
(0 4.62194e-13 0)
(0 4.57591e-13 0)
(0 4.57425e-13 0)
(0 4.60757e-13 0)
(0 4.56319e-13 0)
(-8.00802e-29 4.53536e-13 0)
(-3.98413e-29 4.49027e-13 0)
(0 4.45368e-13 0)
(0 4.51066e-13 0)
(0 4.51688e-13 0)
(0 4.43085e-13 0)
(-3.89234e-29 4.32884e-13 0)
(0 4.31897e-13 0)
(0 4.35013e-13 0)
(0 4.25695e-13 0)
(3.81977e-29 4.31221e-13 0)
(-7.60336e-29 4.36807e-13 0)
(0 4.22705e-13 0)
(7.53199e-29 4.2329e-13 0)
(0 4.28753e-13 0)
(0 4.26939e-13 0)
(-7.42742e-29 4.17151e-13 0)
(0 4.09741e-13 0)
(0 4.11084e-13 0)
(0 4.12471e-13 0)
(0 4.1464e-13 0)
(0 4.1518e-13 0)
(-7.22133e-29 4.08696e-13 0)
(0 3.97556e-13 0)
(0 3.95768e-13 0)
(0 4.01003e-13 0)
(0 4.04664e-13 0)
(0 4.07478e-13 0)
(0 3.99602e-13 0)
(0 3.90245e-13 0)
(0 3.94522e-13 0)
(0 3.92808e-13 0)
(0 3.88044e-13 0)
(0 3.86373e-13 0)
(6.82712e-29 3.89115e-13 0)
(-6.79101e-29 3.9179e-13 0)
(0 3.81272e-13 0)
(0 3.78068e-13 0)
(0 3.83594e-13 0)
(-6.66642e-29 3.83393e-13 0)
(-6.63656e-29 3.76002e-13 0)
(0 3.74283e-13 0)
(0 3.73983e-13 0)
(0 3.72243e-13 0)
(0 3.76239e-13 0)
(0 3.70379e-13 0)
(0 3.64487e-13 0)
(0 3.61464e-13 0)
(0 3.57015e-13 0)
(0 3.59521e-13 0)
(0 3.59273e-13 0)
(-6.30007e-29 3.50818e-13 0)
(6.27339e-29 3.5465e-13 0)
(-6.24086e-29 3.59802e-13 0)
(0 3.55449e-13 0)
(-6.18475e-29 3.47177e-13 0)
(0 3.46877e-13 0)
(0 3.54624e-13 0)
(0 3.52997e-13 0)
(0 3.52665e-13 0)
(-6.04119e-29 3.45789e-13 0)
(0 3.40249e-13 0)
(0 3.47786e-13 0)
(0 3.5782e-13 0)
(-5.92776e-29 3.38174e-13 0)
(0 3.16055e-13 0)
(5.87353e-29 3.37555e-13 0)
(0 3.5759e-13 0)
(-5.81676e-29 3.45782e-13 0)
(-5.79053e-29 3.303e-13 0)
(0 3.35027e-13 0)
(0 3.52205e-13 0)
(-5.70984e-29 3.40654e-13 0)
(0 3.17938e-13 0)
(0 3.22597e-13 0)
(0 3.32151e-13 0)
(0 3.37915e-13 0)
(0 3.43579e-13 0)
(-5.55023e-29 3.31094e-13 0)
(0 3.30662e-13 0)
(-5.49951e-29 3.33954e-13 0)
(0 3.27525e-13 0)
(0 3.28326e-13 0)
(0 3.25586e-13 0)
(-1.07925e-28 3.19393e-13 0)
(5.37219e-29 3.20168e-13 0)
(-5.34535e-29 3.24457e-13 0)
(0 3.19413e-13 0)
(0 3.15587e-13 0)
(0 3.01502e-13 0)
(1.04927e-28 3.10227e-13 0)
(0 3.23541e-13 0)
(0 3.10696e-13 0)
(1.03461e-28 3.09121e-13 0)
(0 3.10966e-13 0)
(0 3.07268e-13 0)
(0 3.09111e-13 0)
(0 3.05395e-13 0)
(-5.05361e-29 2.962e-13 0)
(0 3.00177e-13 0)
(0 3.05274e-13 0)
(-9.966e-29 2.95164e-13 0)
(0 2.80779e-13 0)
(9.8715e-29 2.85772e-13 0)
(0 2.97174e-13 0)
(0 2.96767e-13 0)
(0 2.97408e-13 0)
(-9.68778e-29 2.9073e-13 0)
(0 2.7884e-13 0)
(0 2.72243e-13 0)
(9.55322e-29 2.95625e-13 0)
(-9.50842e-29 3.1069e-13 0)
(0 2.86626e-13 0)
(0 2.79056e-13 0)
(0 2.87793e-13 0)
(0 2.84343e-13 0)
(0 2.7688e-13 0)
(0 2.75513e-13 0)
(0 2.78096e-13 0)
(0 2.74718e-13 0)
(0 2.75258e-13 0)
(0 2.89437e-13 0)
(-9.02921e-29 2.86081e-13 0)
(0 2.71167e-13 0)
(0 2.64007e-13 0)
(0 2.60729e-13 0)
(0 2.61316e-13 0)
(0 2.61907e-13 0)
(-8.77817e-29 2.54912e-13 0)
(0 2.62936e-13 0)
(0 2.82176e-13 0)
(-8.65586e-29 2.67775e-13 0)
(0 2.51533e-13 0)
(0 2.64957e-13 0)
(-8.53503e-29 2.61839e-13 0)
(0 2.56775e-13 0)
(0 2.6634e-13 0)
(0 2.64988e-13 0)
(-8.37543e-29 2.54656e-13 0)
(8.33555e-29 2.55069e-13 0)
(0 2.62656e-13 0)
(0 2.59543e-13 0)
(0 2.58179e-13 0)
(0 2.58566e-13 0)
(-8.14175e-29 2.48549e-13 0)
(8.10577e-29 2.455e-13 0)
(0 2.5624e-13 0)
(0 2.66837e-13 0)
(-1.59828e-28 2.55301e-13 0)
(0 2.2689e-13 0)
(0 2.17255e-13 0)
(7.87863e-29 2.41156e-13 0)
(0 2.56611e-13 0)
(0 2.43647e-13 0)
(0 2.42331e-13 0)
(0 2.37827e-13 0)
(0 2.30016e-13 0)
(0 2.30407e-13 0)
(0 2.24361e-13 0)
(0 2.15134e-13 0)
(1.51053e-28 2.31525e-13 0)
(0 2.51009e-13 0)
(-7.47934e-29 2.35429e-13 0)
(-7.45041e-29 2.13667e-13 0)
(0 2.14014e-13 0)
(0 2.26989e-13 0)
(-7.35088e-29 2.30548e-13 0)
(0 2.2298e-13 0)
(-7.26766e-29 2.13959e-13 0)
(0 2.14447e-13 0)
(0 2.24023e-13 0)
(0 2.24201e-13 0)
(0 2.24288e-13 0)
(0 2.3645e-13 0)
(-7.06763e-29 2.30848e-13 0)
(-1.40836e-28 2.00366e-13 0)
(0 1.87537e-13 0)
(6.96539e-29 2.09554e-13 0)
(0 2.22988e-13 0)
(0 2.1622e-13 0)
(0 2.16371e-13 0)
(0 2.23487e-13 0)
(-1.36108e-28 2.08095e-13 0)
(0 1.94317e-13 0)
(0 2.07359e-13 0)
(0 2.21653e-13 0)
(-6.68726e-29 2.13522e-13 0)
(0 2.02479e-13 0)
(-1.32366e-28 1.97263e-13 0)
(0 2.0032e-13 0)
(-6.56194e-29 2.06025e-13 0)
(-6.52858e-29 1.92644e-13 0)
(0 1.95555e-13 0)
(0 2.13268e-13 0)
(-6.44124e-29 1.97624e-13 0)
(0 1.76585e-13 0)
(0 1.80729e-13 0)
(6.34573e-29 2.10784e-13 0)
(0 2.27896e-13 0)
(-6.29389e-29 2.0107e-13 0)
(0 1.76825e-13 0)
(0 1.65482e-13 0)
(1.24053e-28 1.84778e-13 0)
(0 1.98994e-13 0)
(0 1.85324e-13 0)
(0 2.01579e-13 0)
(0 2.15359e-13 0)
(-1.21128e-28 1.97036e-13 0)
(-1.20748e-28 1.76439e-13 0)
(0 1.70421e-13 0)
(0 1.6696e-13 0)
(0 1.70759e-13 0)
(0 1.93712e-13 0)
(0 1.95056e-13 0)
(1.17256e-28 1.91438e-13 0)
(1.16546e-28 2.04354e-13 0)
(0 2.05589e-13 0)
(0 1.9982e-13 0)
(0 2.03333e-13 0)
(0 1.90701e-13 0)
(0 1.75814e-13 0)
(0 1.99764e-13 0)
(-1.12958e-28 2.05471e-13 0)
(-1.12299e-28 1.81805e-13 0)
(0 1.96351e-13 0)
(-1.11325e-28 1.81986e-13 0)
(0 1.65226e-13 0)
(0 1.99408e-13 0)
(-1.0974e-28 1.94006e-13 0)
(-1.09273e-28 1.51674e-13 0)
(0 1.50688e-13 0)
(0 1.73503e-13 0)
(0 1.83037e-13 0)
(0 1.94506e-13 0)
(0 2.03896e-13 0)
(-1.06258e-28 1.77791e-13 0)
(0 1.5583e-13 0)
(-1.05242e-28 1.63266e-13 0)
(0 1.66439e-13 0)
(0 1.73521e-13 0)
(0 1.58254e-13 0)
(1.03267e-28 1.55286e-13 0)
(1.02853e-28 1.78508e-13 0)
(0 1.67502e-13 0)
(0 1.40637e-13 0)
(1.01365e-28 1.57427e-13 0)
(0 1.78107e-13 0)
(0 1.77054e-13 0)
(-9.99185e-29 1.5669e-13 0)
(0 1.40256e-13 0)
(0 1.50907e-13 0)
(0 1.55769e-13 0)
(0 1.53002e-13 0)
(0 1.53912e-13 0)
(0 1.60346e-13 0)
(0 1.53834e-13 0)
(0 1.52829e-13 0)
(0 1.6102e-13 0)
(-9.53431e-29 1.54681e-13 0)
(0 1.50191e-13 0)
(0 1.56406e-13 0)
(-9.40625e-29 1.44743e-13 0)
(0 1.33102e-13 0)
(9.31526e-29 1.60484e-13 0)
(0 1.80646e-13 0)
(0 1.79498e-13 0)
(-9.18203e-29 1.5939e-13 0)
(0 1.35973e-13 0)
(0 1.42005e-13 0)
(0 1.56489e-13 0)
(0 1.5718e-13 0)
(0 1.47735e-13 0)
(0 1.58437e-13 0)
(0 1.69131e-13 0)
(-8.84468e-29 1.53305e-13 0)
(0 1.42508e-13 0)
(0 1.59429e-13 0)
(-1.74292e-28 1.69786e-13 0)
(-1.73703e-28 1.59119e-13 0)
(0 1.64439e-13 0)
(0 1.71375e-13 0)
(-8.55969e-29 1.53043e-13 0)
(0 1.53547e-13 0)
(0 1.83643e-13 0)
(-2.53134e-28 1.70244e-13 0)
(0 1.44493e-13 0)
(0 1.58776e-13 0)
(0 1.63925e-13 0)
(0 1.65961e-13 0)
(-1.64962e-28 1.73961e-13 0)
(0 1.63848e-13 0)
(0 1.59701e-13 0)
(0 1.67551e-13 0)
(0 1.66561e-13 0)
(0 1.59695e-13 0)
(0 1.67277e-13 0)
(-1.59497e-28 1.69142e-13 0)
(0 1.62329e-13 0)
(0 1.61254e-13 0)
(0 1.60153e-13 0)
(-7.82898e-29 1.5638e-13 0)
(0 1.52611e-13 0)
(0 1.59923e-13 0)
(0 1.67087e-13 0)
(0 1.55103e-13 0)
(0 1.45918e-13 0)
(0 1.55761e-13 0)
(0 1.54786e-13 0)
(0 1.56336e-13 0)
(0 1.55384e-13 0)
(-1.49442e-28 1.38741e-13 0)
(0 1.3775e-13 0)
(0 1.5483e-13 0)
(0 1.5135e-13 0)
(-1.46598e-28 1.40158e-13 0)
(-1.45904e-28 1.36725e-13 0)
(0 1.33277e-13 0)
(0 1.39881e-13 0)
(0 1.26629e-13 0)
(0 1.28145e-13 0)
(0 1.39644e-13 0)
(-1.41873e-28 1.21717e-13 0)
(0 1.13636e-13 0)
(0 1.24833e-13 0)
(0 1.31133e-13 0)
(-1.39182e-28 1.32587e-13 0)
(0 1.38808e-13 0)
(-1.37936e-28 1.16976e-13 0)
(0 1.02158e-13 0)
(0 1.17586e-13 0)
(0 1.25938e-13 0)
(0 1.34193e-13 0)
(-1.34798e-28 1.35648e-13 0)
(0 1.23503e-13 0)
(0 1.07024e-13 0)
(0 1.10679e-13 0)
(0 1.18813e-13 0)
(0 1.28815e-13 0)
(-1.30904e-28 1.2585e-13 0)
(0 1.09897e-13 0)
(0 1.13477e-13 0)
(0 1.16937e-13 0)
(0 1.26647e-13 0)
(-1.27969e-28 1.25819e-13 0)
(0 1.12444e-13 0)
(-1.2681e-28 1.03428e-13 0)
(-1.26084e-28 9.65535e-14 0)
(0 9.58768e-14 0)
(0 9.72549e-14 0)
(0 9.65942e-14 0)
(1.23854e-28 1.05892e-13 0)
(0 1.09168e-13 0)
(0 9.46116e-14 0)
(0 8.21982e-14 0)
(1.2151e-28 9.51819e-14 0)
(-1.20938e-28 1.08131e-13 0)
(0 9.58931e-14 0)
(0 9.13513e-14 0)
(0 1.00138e-13 0)
(0 1.03256e-13 0)
(0 1.09964e-13 0)
(-3.52573e-28 9.26303e-14 0)
(0 8.08027e-14 0)
(0 9.85365e-14 0)
(-1.15933e-28 9.96778e-14 0)
(0 9.71777e-14 0)
(0 1.00084e-13 0)
(0 9.23146e-14 0)
(0 9.32965e-14 0)
(0 1.04935e-13 0)
(0 1.02515e-13 0)
(0 9.83626e-14 0)
(0 9.421e-14 0)
(0 1.05354e-13 0)
(0 1.08065e-13 0)
(-1.10053e-28 9.22053e-14 0)
(0 9.31791e-14 0)
(0 1.05716e-13 0)
(-1.08503e-28 1.0173e-13 0)
(0 9.44644e-14 0)
(-1.07519e-28 8.73878e-14 0)
(0 8.34922e-14 0)
(0 9.24496e-14 0)
(0 1.04427e-13 0)
(-1.0553e-28 9.12281e-14 0)
(0 6.55356e-14 0)
(0 5.88615e-14 0)
(2.08068e-28 8.90404e-14 0)
(0 1.06907e-13 0)
(-1.03129e-28 7.88721e-14 0)
(0 6.92035e-14 0)
(0 7.46604e-14 0)
(0 8.00512e-14 0)
(0 8.53452e-14 0)
(-1.00636e-28 7.8918e-14 0)
(0 7.25144e-14 0)
(0 6.91391e-14 0)
(0 5.7201e-14 0)
(2.96487e-28 7.9357e-14 0)
(0 9.30049e-14 0)
(0 7.8301e-14 0)
(0 7.49697e-14 0)
(0 6.61433e-14 0)
(0 5.198e-14 0)
(0 4.88465e-14 0)
(9.5639e-29 6.73324e-14 0)
(-9.51664e-29 5.62706e-14 0)
(9.46985e-29 4.24435e-14 0)
(0 5.53375e-14 0)
(0 6.01552e-14 0)
(0 7.00711e-14 0)
(-9.29839e-29 6.70397e-14 0)
(-1.84963e-28 4.35273e-14 0)
(0 3.04673e-14 0)
(0 4.27939e-14 0)
(0 6.25098e-14 0)
(-1.81692e-28 5.22134e-14 0)
(0 2.71392e-14 0)
(0 2.93075e-14 0)
(0 4.36637e-14 0)
(0 5.29708e-14 0)
(0 5.02231e-14 0)
(0 4.26992e-14 0)
(0 5.17656e-14 0)
(-1.74886e-28 6.07542e-14 0)
(-1.74095e-28 4.18094e-14 0)
(0 2.75951e-14 0)
(0 4.56198e-14 0)
(0 5.66682e-14 0)
(0 5.39805e-14 0)
(0 5.58037e-14 0)
(-1.69313e-28 4.43641e-14 0)
(0 3.73393e-14 0)
(1.67654e-28 5.23174e-14 0)
(0 4.76845e-14 0)
(0 3.86596e-14 0)
(0 4.90006e-14 0)
(0 5.28765e-14 0)
(-1.63735e-28 3.78242e-14 0)
(0 3.95253e-14 0)
(0 5.16794e-14 0)
(-1.61419e-28 4.51263e-14 0)
(0 3.46182e-14 0)
(0 2.42508e-14 0)
(0 3.20093e-14 0)
(0 5.1656e-14 0)
(0 6.31135e-14 0)
(-1.57059e-28 4.31625e-14 0)
(0 3.68303e-14 0)
(0 5.77859e-14 0)
(0 6.49945e-14 0)
(-1.54074e-28 5.88446e-14 0)
(-1.53308e-28 4.51768e-14 0)
(0 3.92212e-14 0)
(0 5.18258e-14 0)
(0 5.51914e-14 0)
(0 3.10534e-14 0)
(0 1.99009e-14 0)
(0 4.12227e-14 0)
(0 5.52529e-14 0)
(0 4.42065e-14 0)
(0 4.03094e-14 0)
(0 4.52036e-14 0)
(-1.45628e-28 3.62865e-14 0)
(0 2.39698e-14 0)
(1.44264e-28 4.2386e-14 0)
(0 3.71643e-14 0)
(1.42926e-28 4.16839e-14 0)
(0 6.63587e-14 0)
(-1.41612e-28 5.10551e-14 0)
(0 5.37972e-14 0)
(-1.40259e-28 6.31611e-14 0)
(-2.79247e-28 4.50273e-14 0)
(-2.77862e-28 1.75879e-14 0)
(0 2.04797e-14 0)
(0 3.763e-14 0)
(0 4.35264e-14 0)
(0 3.70833e-14 0)
(0 3.66923e-14 0)
(0 4.85923e-14 0)
(0 5.72028e-14 0)
(-2.67723e-28 3.89603e-14 0)
(-1.33167e-28 1.18596e-14 0)
(0 2.64016e-14 0)
(0 3.50191e-14 0)
(0 4.04609e-14 0)
(-1.30738e-28 3.73746e-14 0)
(0 3.12827e-14 0)
(0 3.39046e-14 0)
(0 2.24275e-14 0)
(-1.28288e-28 1.11378e-14 0)
(0 1.37479e-14 0)
(0 1.37029e-14 0)
(1.26498e-28 2.97301e-14 0)
(0 6.18203e-14 0)
(-2.50527e-28 2.95033e-14 0)
(0 2.59772e-15 0)
(0 3.66604e-14 0)
(-1.23556e-28 5.20802e-14 0)
(-3.68893e-28 1.8189e-14 0)
(0 -3.74765e-17 0)
(-1.21846e-28 7.63313e-15 0)
(0 2.51153e-14 0)
(0 3.5025e-14 0)
(0 2.72492e-14 0)
(-1.19577e-28 2.21547e-14 0)
(-2.38045e-28 2.43444e-14 0)
(-1.18428e-28 4.83004e-14 0)
(-3.53652e-28 4.56346e-14 0)
(-1.17345e-28 7.22715e-15 0)
(-1.16767e-28 -1.41511e-14 0)
(2.32477e-28 1.62613e-14 0)
(-1.15715e-28 4.87365e-14 0)
(0 4.14753e-14 0)
(-2.29192e-28 1.15007e-14 0)
(0 -6.79958e-15 0)
(0 2.22029e-15 0)
(1.12999e-28 3.10965e-14 0)
(0 4.86252e-14 0)
(0 3.94601e-14 0)
(-1.11446e-28 2.39509e-14 0)
(0 1.93736e-14 0)
(0 1.92681e-14 0)
(0 1.48341e-14 0)
(-1.0935e-28 6.35292e-15 0)
(1.08848e-28 6.21749e-15 0)
(0 1.24322e-14 0)
(1.0782e-28 2.86419e-14 0)
(0 2.04683e-14 0)
(1.06811e-28 -1.00811e-14 0)
(1.06332e-28 1.19145e-14 0)
(0 2.58522e-14 0)
(0 9.87014e-15 0)
(0 3.90711e-15 0)
(0 5.80497e-15 0)
(0 1.15119e-14 0)
(-1.03336e-28 3.85888e-15 0)
(0 -3.79291e-15 0)
(0 5.60169e-15 0)
(-1.01901e-28 5.60166e-15 0)
(0 1.28582e-14 0)
(-1.00966e-28 2.37848e-14 0)
(-2.00945e-28 -1.71479e-15 0)
(0 -1.44333e-14 0)
(0 7.09593e-15 0)
(0 1.41751e-14 0)
(-1.97215e-28 4.40725e-17 0)
(0 -6.97763e-15 0)
(0 -3.45288e-15 0)
(0 6.81114e-15 0)
(0 1.69934e-14 0)
(0 8.46355e-15 0)
(0 6.6606e-15 0)
(0 6.66057e-15 0)
(-1.89981e-28 -4.91225e-15 0)
(0 -1.79077e-14 0)
(0 -8.15966e-15 0)
(1.87324e-28 1.44269e-14 0)
(-1.86418e-28 -6.26414e-15 0)
(1.85576e-28 6.16575e-15 0)
(-1.84686e-28 2.51428e-14 0)
(0 1.08597e-14 0)
(0 9.27401e-15 0)
(-1.82121e-28 -4.55567e-15 0)
(0 -1.06228e-14 0)
(0 1.46299e-15 0)
(0 8.96752e-15 0)
(0 1.49919e-15 0)
(0 -4.39884e-15 0)
(1.77097e-28 7.23212e-15 0)
(0 1.44747e-14 0)
(0 1.43123e-14 0)
(0 1.84937e-14 0)
(0 9.90419e-15 0)
(-1.72923e-28 -9.74504e-15 0)
(0 -1.25328e-14 0)
(1.71337e-28 5.47533e-15 0)
(0 1.09398e-14 0)
(0 8.13214e-15 0)
(0 1.20849e-14 0)
(0 1.20205e-14 0)
(-1.67381e-28 1.35002e-15 0)
(0 -3.94275e-15 0)
(0 3.88033e-15 0)
(0 4.17268e-17 0)
(0 -5.14531e-15 0)
(1.63474e-28 2.02601e-14 0)
(0 3.03087e-14 0)
(0 7.55665e-15 0)
(1.61208e-28 7.39816e-15 0)
(0 1.97002e-14 0)
(0 2.44075e-14 0)
(0 3.6321e-14 0)
(-3.16375e-28 2.17235e-14 0)
(-1.5742e-28 -2.37465e-15 0)
(0 4.6946e-15 0)
(0 2.10952e-14 0)
(-1.55239e-28 1.8663e-14 0)
(-1.54499e-28 1.15363e-14 0)
(0 2.51503e-14 0)
(-1.53079e-28 2.05143e-14 0)
(0 6.75264e-15 0)
(-1.51648e-28 6.71624e-15 0)
(0 1.10601e-14 0)
(-1.50207e-28 1.32148e-14 0)
(0 1.30738e-14 0)
(0 1.94692e-14 0)
(-1.48113e-28 1.07768e-14 0)
(0 2.12008e-15 0)
(1.46738e-28 2.52489e-14 0)
(-2.92084e-28 2.72993e-14 0)
(0 2.27807e-14 0)
(-1.44671e-28 2.27117e-14 0)
(-1.43995e-28 6.13506e-15 0)
(0 -8.05003e-15 0)
(0 -1.00837e-14 0)
(0 1.02588e-19 0)
(0 -1.96584e-15 0)
(1.40643e-28 7.78058e-15 0)
(0 1.94102e-14 0)
(0 7.74775e-15 0)
(0 -1.65087e-17 0)
(0 1.13159e-14 0)
(-1.37413e-28 1.12834e-14 0)
(0 1.86699e-15 0)
(0 1.1004e-14 0)
(-1.3545e-28 7.36804e-15 0)
(-1.34857e-28 -9.04128e-15 0)
(0 -5.40534e-15 0)
(0 3.53954e-15 0)
(0 8.80059e-15 0)
(0 1.78568e-15 0)
(0 -3.47538e-15 0)
(0 9.54469e-15 0)
(-1.30461e-28 9.54469e-15 0)
)
;

boundaryField
{
    INLET
    {
        type            cyclic;
    }
    OUTLET
    {
        type            cyclic;
    }
    CENTER
    {
        type            symmetryPlane;
    }
    WALL
    {
        type            extrapolatedCalculated;
        value           uniform (6.10193e-32 1.29737e-12 0);
    }
    frontAndBackPlanes
    {
        type            empty;
    }
}


// ************************************************************************* //
