/*--------------------------------*- C++ -*----------------------------------*\
| =========                 |                                                 |
| \\      /  F ield         | OpenFOAM: The Open Source CFD Toolbox           |
|  \\    /   O peration     | Version:  v1806                                 |
|   \\  /    A nd           | Web:      www.OpenFOAM.com                      |
|    \\/     M anipulation  |                                                 |
\*---------------------------------------------------------------------------*/
FoamFile
{
    version     2.0;
    format      ascii;
    class       volVectorField;
    location    "10000";
    object      grad(k);
}
// * * * * * * * * * * * * * * * * * * * * * * * * * * * * * * * * * * * * * //

dimensions      [0 1 -2 0 0 0 0];


internalField   nonuniform List<vector> 
1025
(
(0 9.48315 0)
(0 25.5788 0)
(-4.25368e-18 39.4381 0)
(-8.46762e-18 42.1043 0)
(0 35.1181 0)
(0 26.3545 0)
(-1.66981e-17 19.8029 0)
(0 15.4762 0)
(0 12.6235 0)
(0 10.6687 0)
(0 9.26629 0)
(0 8.21743 0)
(0 7.40508 0)
(-3.23165e-17 6.75758 0)
(-1.60824e-17 6.22916 0)
(0 5.78943 0)
(0 5.41749 0)
(0 5.09852 0)
(0 4.82175 0)
(0 4.57915 0)
(0 4.36464 0)
(1.55624e-17 4.17349 0)
(0 4.00199 0)
(0 3.84721 0)
(1.53444e-17 3.70676 0)
(0 3.57869 0)
(0 3.46141 0)
(0 3.35359 0)
(0 3.2541 0)
(-2.99771e-17 3.16201 0)
(0 3.0765 0)
(0 2.99689 0)
(0 2.92258 0)
(0 2.85305 0)
(0 2.78786 0)
(0 2.72662 0)
(0 2.66897 0)
(0 2.61461 0)
(-2.8734e-17 2.56326 0)
(0 2.51468 0)
(0 2.46867 0)
(0 2.42501 0)
(-2.82013e-17 2.38354 0)
(0 2.34411 0)
(0 2.30656 0)
(0 2.27077 0)
(-2.76765e-17 2.23662 0)
(0 2.20401 0)
(0 2.17283 0)
(0 2.14299 0)
(0 2.11442 0)
(5.40751e-17 2.08704 0)
(0 2.06078 0)
(-2.67859e-17 2.03557 0)
(0 2.01135 0)
(0 1.98808 0)
(0 1.96569 0)
(0 1.94414 0)
(0 1.92339 0)
(0 1.90339 0)
(0 1.88412 0)
(0 1.86552 0)
(0 1.84757 0)
(0 1.83024 0)
(0 1.81349 0)
(0 1.79731 0)
(0 1.78166 0)
(0 1.76652 0)
(-2.49574e-17 1.75186 0)
(-2.48449e-17 1.73767 0)
(-2.47242e-17 1.72392 0)
(-4.92278e-17 1.7106 0)
(0 1.69769 0)
(2.43781e-17 1.68517 0)
(0 1.67302 0)
(0 1.66122 0)
(0 1.64978 0)
(0 1.63866 0)
(0 1.62785 0)
(0 1.61736 0)
(0 1.60715 0)
(0 1.59723 0)
(-2.33749e-17 1.58757 0)
(0 1.57818 0)
(0 1.56903 0)
(0 1.56013 0)
(0 1.55146 0)
(-4.56612e-17 1.54301 0)
(0 1.53478 0)
(0 1.52675 0)
(0 1.51892 0)
(0 1.51129 0)
(0 1.50385 0)
(0 1.49658 0)
(0 1.48949 0)
(0 1.48256 0)
(-4.37734e-17 1.47579 0)
(0 1.46919 0)
(0 1.46273 0)
(0 1.45642 0)
(4.29565e-17 1.45025 0)
(0 1.44422 0)
(0 1.43831 0)
(0 1.43254 0)
(0 1.42688 0)
(-4.19622e-17 1.42135 0)
(0 1.41593 0)
(4.15603e-17 1.41063 0)
(-4.1372e-17 1.40543 0)
(0 1.40034 0)
(-4.09812e-17 1.39534 0)
(0 1.39045 0)
(0 1.38565 0)
(4.04119e-17 1.38094 0)
(4.02215e-17 1.37632 0)
(0 1.37179 0)
(3.98461e-17 1.36734 0)
(0 1.36297 0)
(0 1.35868 0)
(0 1.35446 0)
(0 1.35032 0)
(-3.89204e-17 1.34625 0)
(-3.87382e-17 1.34224 0)
(0 1.33831 0)
(0 1.33444 0)
(-3.81959e-17 1.33063 0)
(-3.80204e-17 1.32688 0)
(-3.7841e-17 1.32319 0)
(3.7658e-17 1.31956 0)
(0 1.31598 0)
(0 1.31246 0)
(-3.71349e-17 1.30898 0)
(0 1.30556 0)
(-3.67891e-17 1.30219 0)
(0 1.29886 0)
(-3.64447e-17 1.29558 0)
(0 1.29235 0)
(0 1.28915 0)
(0 1.286 0)
(3.57651e-17 1.28289 0)
(0 1.27981 0)
(0 1.27678 0)
(3.52648e-17 1.27378 0)
(-3.51012e-17 1.27081 0)
(-3.49344e-17 1.26788 0)
(0 1.26498 0)
(-3.46101e-17 1.26212 0)
(0 1.25929 0)
(0 1.25648 0)
(-3.41281e-17 1.2537 0)
(0 1.25096 0)
(0 1.24824 0)
(-3.36466e-17 1.24554 0)
(0 1.24287 0)
(0 1.24023 0)
(0 1.23761 0)
(0 1.23501 0)
(0 1.23243 0)
(6.54221e-17 1.22988 0)
(-3.25622e-17 1.22734 0)
(0 1.22483 0)
(0 1.22233 0)
(0 1.21985 0)
(0 1.21739 0)
(0 1.21495 0)
(0 1.21252 0)
(0 1.21011 0)
(0 1.20771 0)
(0 1.20533 0)
(-3.10824e-17 1.20297 0)
(-3.09226e-17 1.20062 0)
(0 1.19827 0)
(0 1.19594 0)
(0 1.19363 0)
(0 1.19132 0)
(0 1.18903 0)
(-6.01586e-17 1.18675 0)
(5.98187e-17 1.18447 0)
(-5.95496e-17 1.18221 0)
(0 1.17995 0)
(-5.90185e-17 1.17771 0)
(5.87564e-17 1.17548 0)
(0 1.17325 0)
(0 1.17103 0)
(0 1.16881 0)
(0 1.1666 0)
(5.7356e-17 1.1644 0)
(-5.71085e-17 1.1622 0)
(0 1.16002 0)
(0 1.15784 0)
(0 1.15566 0)
(-5.608e-17 1.15349 0)
(-5.57259e-17 1.15132 0)
(0 1.14915 0)
(-5.52029e-17 1.14699 0)
(0 1.14484 0)
(0 1.14268 0)
(-5.45207e-17 1.14053 0)
(0 1.13839 0)
(5.39649e-17 1.13624 0)
(0 1.1341 0)
(0 1.13197 0)
(-5.32056e-17 1.12983 0)
(5.29396e-17 1.12769 0)
(0 1.12555 0)
(0 1.12342 0)
(0 1.12129 0)
(0 1.11916 0)
(0 1.11703 0)
(0 1.1149 0)
(-5.12484e-17 1.11277 0)
(0 1.11064 0)
(1.01611e-16 1.10852 0)
(-5.05148e-17 1.10639 0)
(1.0055e-16 1.10426 0)
(0 1.10213 0)
(0 1.10001 0)
(0 1.09788 0)
(0 1.09575 0)
(0 1.09361 0)
(-9.77647e-17 1.09148 0)
(-4.87024e-17 1.08935 0)
(0 1.08721 0)
(0 1.08508 0)
(-9.59919e-17 1.08294 0)
(4.77363e-17 1.0808 0)
(0 1.07866 0)
(9.46194e-17 1.07652 0)
(-4.70993e-17 1.07437 0)
(0 1.07222 0)
(0 1.07008 0)
(0 1.06793 0)
(-9.23902e-17 1.06577 0)
(0 1.06361 0)
(-4.57955e-17 1.06146 0)
(-1.36795e-16 1.0593 0)
(0 1.05714 0)
(0 1.05498 0)
(0 1.05281 0)
(-8.94249e-17 1.05064 0)
(-4.45244e-17 1.04846 0)
(0 1.04629 0)
(-8.82326e-17 1.04411 0)
(0 1.04193 0)
(4.37156e-17 1.03974 0)
(0 1.03756 0)
(0 1.03537 0)
(0 1.03317 0)
(0 1.03098 0)
(8.53864e-17 1.02878 0)
(0 1.02658 0)
(0 1.02437 0)
(0 1.02216 0)
(8.37651e-17 1.01995 0)
(0 1.01773 0)
(0 1.01551 0)
(-8.2589e-17 1.01329 0)
(0 1.01106 0)
(0 1.00884 0)
(-8.14455e-17 1.00661 0)
(-8.10713e-17 1.00437 0)
(0 1.00213 0)
(-8.02723e-17 0.999889 0)
(0 0.997641 0)
(-7.95485e-17 0.995393 0)
(0 0.993143 0)
(0 0.990888 0)
(0 0.988628 0)
(0 0.986368 0)
(0 0.984103 0)
(0 0.981833 0)
(0 0.97956 0)
(0 0.977284 0)
(0 0.975007 0)
(0 0.972728 0)
(0 0.970442 0)
(0 0.968153 0)
(0 0.965861 0)
(0 0.963564 0)
(0 0.961264 0)
(0 0.958963 0)
(-7.34252e-17 0.956656 0)
(0 0.954345 0)
(-7.27692e-17 0.952033 0)
(0 0.94972 0)
(-7.20756e-17 0.947403 0)
(0 0.945082 0)
(0 0.942757 0)
(0 0.940429 0)
(0 0.938098 0)
(0 0.935763 0)
(0 0.933427 0)
(6.97491e-17 0.931087 0)
(0 0.928743 0)
(0 0.926396 0)
(0 0.924048 0)
(0 0.921696 0)
(-6.81333e-17 0.919341 0)
(0 0.916983 0)
(0 0.914621 0)
(-6.71822e-17 0.912258 0)
(0 0.909892 0)
(0 0.907523 0)
(0 0.905151 0)
(0 0.902776 0)
(0 0.900399 0)
(0 0.89802 0)
(-6.49964e-17 0.895639 0)
(0 0.893253 0)
(0 0.890866 0)
(0 0.888477 0)
(0 0.886084 0)
(0 0.883689 0)
(0 0.881292 0)
(0 0.878892 0)
(0 0.87649 0)
(0 0.874087 0)
(0 0.871679 0)
(0 0.869269 0)
(6.14148e-17 0.866858 0)
(0 0.864444 0)
(0 0.862029 0)
(0 0.859611 0)
(0 0.857191 0)
(0 0.854771 0)
(0 0.852347 0)
(-1.18899e-16 0.849921 0)
(0 0.847494 0)
(0 0.845065 0)
(-5.85939e-17 0.842632 0)
(0 0.840199 0)
(0 0.837764 0)
(-5.77943e-17 0.835326 0)
(0 0.832889 0)
(0 0.83045 0)
(-5.69855e-17 0.828009 0)
(5.67108e-17 0.825565 0)
(0 0.82312 0)
(0 0.820672 0)
(-5.59319e-17 0.818223 0)
(0 0.815774 0)
(0 0.813323 0)
(0 0.810871 0)
(-1.09776e-16 0.808417 0)
(0 0.805963 0)
(0 0.803507 0)
(0 0.801049 0)
(0 0.79859 0)
(-1.07219e-16 0.796131 0)
(0 0.79367 0)
(0 0.791207 0)
(1.05721e-16 0.788742 0)
(0 0.786278 0)
(0 0.783813 0)
(0 0.781347 0)
(0 0.77888 0)
(0 0.77641 0)
(0 0.77394 0)
(0 0.77147 0)
(0 0.769 0)
(0 0.766528 0)
(1.00885e-16 0.764055 0)
(0 0.761583 0)
(0 0.759109 0)
(0 0.756635 0)
(0 0.75416 0)
(0 0.751685 0)
(-9.80816e-17 0.749209 0)
(-1.95169e-16 0.746731 0)
(0 0.744254 0)
(0 0.741777 0)
(0 0.739299 0)
(-1.9155e-16 0.73682 0)
(0 0.73434 0)
(9.49163e-17 0.731862 0)
(0 0.729383 0)
(9.40312e-17 0.726904 0)
(0 0.724425 0)
(0 0.721944 0)
(0 0.719464 0)
(0 0.716984 0)
(0 0.714504 0)
(0 0.712023 0)
(0 0.709542 0)
(-9.05724e-17 0.707062 0)
(0 0.704581 0)
(-8.96901e-17 0.7021 0)
(0 0.699619 0)
(0 0.697138 0)
(0 0.694658 0)
(-8.80492e-17 0.692179 0)
(0 0.6897 0)
(0 0.68722 0)
(0 0.68474 0)
(0 0.682261 0)
(0 0.679781 0)
(0 0.677303 0)
(0 0.674825 0)
(0 0.672348 0)
(0 0.66987 0)
(1.67995e-16 0.667393 0)
(-8.35998e-17 0.664916 0)
(0 0.66244 0)
(0 0.659965 0)
(0 0.65749 0)
(0 0.655015 0)
(0 0.652542 0)
(0 0.65007 0)
(0 0.647597 0)
(0 0.645125 0)
(0 0.642654 0)
(0 0.640184 0)
(-7.93994e-17 0.637715 0)
(0 0.635246 0)
(0 0.632777 0)
(0 0.630309 0)
(0 0.627843 0)
(0 0.625378 0)
(-7.71714e-17 0.622914 0)
(0 0.62045 0)
(0 0.617987 0)
(-7.61173e-17 0.615525 0)
(0 0.613064 0)
(-1.50771e-16 0.610604 0)
(0 0.608146 0)
(0 0.605688 0)
(-7.43533e-17 0.603232 0)
(0 0.600777 0)
(0 0.598322 0)
(0 0.595868 0)
(-7.29698e-17 0.593416 0)
(0 0.590966 0)
(-1.44545e-16 0.588517 0)
(0 0.586068 0)
(0 0.583621 0)
(0 0.581175 0)
(0 0.578731 0)
(0 0.576288 0)
(0 0.573846 0)
(0 0.571405 0)
(0 0.568966 0)
(0 0.566528 0)
(1.37953e-16 0.564092 0)
(-1.37238e-16 0.561658 0)
(0 0.559224 0)
(-1.36004e-16 0.556792 0)
(1.35352e-16 0.554362 0)
(0 0.551933 0)
(0 0.549507 0)
(0 0.547081 0)
(0 0.544657 0)
(0 0.542235 0)
(0 0.539814 0)
(0 0.537395 0)
(-2.60706e-16 0.534977 0)
(0 0.532562 0)
(1.2916e-16 0.530148 0)
(0 0.527737 0)
(-2.55824e-16 0.525326 0)
(0 0.522917 0)
(0 0.52051 0)
(0 0.518105 0)
(-2.51122e-16 0.515702 0)
(-1.24931e-16 0.5133 0)
(0 0.5109 0)
(0 0.508503 0)
(0 0.506108 0)
(0 0.503714 0)
(-1.22051e-16 0.501323 0)
(0 0.498933 0)
(-1.20936e-16 0.496545 0)
(0 0.49416 0)
(0 0.491776 0)
(0 0.489394 0)
(0 0.487014 0)
(0 0.484637 0)
(-1.17546e-16 0.482262 0)
(0 0.479889 0)
(0 0.477518 0)
(-1.15937e-16 0.475149 0)
(3.46104e-16 0.472782 0)
(0 0.470418 0)
(0 0.468056 0)
(0 0.465696 0)
(0 0.463338 0)
(0 0.460982 0)
(0 0.45863 0)
(0 0.456279 0)
(0 0.453931 0)
(0 0.451584 0)
(0 0.44924 0)
(-2.19155e-16 0.446899 0)
(0 0.44456 0)
(0 0.442224 0)
(0 0.43989 0)
(0 0.437558 0)
(0 0.435229 0)
(0 0.432903 0)
(0 0.430579 0)
(0 0.428257 0)
(2.10078e-16 0.425938 0)
(0 0.423622 0)
(0 0.421308 0)
(0 0.418998 0)
(0 0.41669 0)
(-1.02596e-16 0.414386 0)
(0 0.412085 0)
(0 0.409788 0)
(0 0.407495 0)
(0 0.405207 0)
(0 0.402922 0)
(0 0.400642 0)
(-9.92772e-17 0.398381 0)
(0 0.396118 0)
(0 0.393839 0)
(-9.78776e-17 0.391561 0)
(-9.74273e-17 0.389284 0)
(0 0.387011 0)
(0 0.384739 0)
(9.60573e-17 0.38247 0)
(0 0.380203 0)
(-2.85517e-16 0.37794 0)
(0 0.375679 0)
(0 0.373421 0)
(-1.87687e-16 0.371166 0)
(0 0.368915 0)
(-9.2958e-17 0.366666 0)
(0 0.364421 0)
(-9.20888e-17 0.362179 0)
(9.16504e-17 0.359939 0)
(0 0.357703 0)
(0 0.355471 0)
(0 0.353241 0)
(0 0.351015 0)
(-1.79039e-16 0.348792 0)
(1.78248e-16 0.346572 0)
(0 0.344356 0)
(0 0.342143 0)
(-1.75733e-16 0.339933 0)
(-1.74898e-16 0.337726 0)
(0 0.335523 0)
(3.46506e-16 0.333323 0)
(0 0.331127 0)
(0 0.328934 0)
(1.70842e-16 0.326744 0)
(-1.70053e-16 0.324558 0)
(0 0.322376 0)
(0 0.320197 0)
(0 0.318021 0)
(0 0.315849 0)
(1.66085e-16 0.313681 0)
(0 0.311517 0)
(-1.64472e-16 0.309356 0)
(0 0.307199 0)
(0 0.305044 0)
(0 0.302893 0)
(-1.61648e-16 0.300748 0)
(0 0.298607 0)
(-1.59818e-16 0.296466 0)
(0 0.294329 0)
(1.5862e-16 0.292199 0)
(-1.57734e-16 0.290072 0)
(0 0.287947 0)
(0 0.285825 0)
(-1.55419e-16 0.283708 0)
(-1.54851e-16 0.281595 0)
(0 0.279489 0)
(0 0.277385 0)
(0 0.275282 0)
(0 0.273187 0)
(0 0.271096 0)
(0 0.269008 0)
(-1.49652e-16 0.266921 0)
(0 0.264839 0)
(0 0.262762 0)
(0 0.26069 0)
(-1.47054e-16 0.258624 0)
(0 0.25656 0)
(-1.45538e-16 0.254498 0)
(0 0.252442 0)
(0 0.250392 0)
(0 0.248344 0)
(0 0.246299 0)
(0 0.244261 0)
(-2.83289e-16 0.242227 0)
(0 0.240198 0)
(0 0.238171 0)
(2.79088e-16 0.236149 0)
(0 0.23413 0)
(-1.38404e-16 0.232116 0)
(0 0.23011 0)
(0 0.228104 0)
(2.72796e-16 0.226103 0)
(0 0.224108 0)
(0 0.222118 0)
(1.3445e-16 0.220131 0)
(0 0.218149 0)
(-2.66363e-16 0.216171 0)
(-2.65528e-16 0.2142 0)
(-1.31937e-16 0.212234 0)
(-1.31323e-16 0.21027 0)
(0 0.208311 0)
(0 0.206356 0)
(0 0.204407 0)
(2.57849e-16 0.202462 0)
(0 0.200521 0)
(0 0.198585 0)
(0 0.196654 0)
(0 0.194728 0)
(0 0.192808 0)
(0 0.190891 0)
(0 0.18898 0)
(-1.24198e-16 0.187074 0)
(-2.46948e-16 0.185172 0)
(1.23115e-16 0.183276 0)
(-2.44807e-16 0.181385 0)
(1.217e-16 0.179497 0)
(0 0.177615 0)
(-2.4132e-16 0.175738 0)
(-2.40293e-16 0.173866 0)
(2.38937e-16 0.171999 0)
(0 0.170137 0)
(0 0.168282 0)
(0 0.166429 0)
(0 0.164582 0)
(-2.33664e-16 0.162741 0)
(0 0.160904 0)
(0 0.159073 0)
(0 0.157248 0)
(0 0.155428 0)
(-2.28003e-16 0.153612 0)
(1.13543e-16 0.151801 0)
(0 0.149997 0)
(0 0.148198 0)
(0 0.146403 0)
(1.11452e-16 0.144613 0)
(0 0.142829 0)
(0 0.141051 0)
(-2.19723e-16 0.139279 0)
(0 0.13751 0)
(0 0.135748 0)
(0 0.133992 0)
(0 0.132241 0)
(0 0.130496 0)
(0 0.128757 0)
(-2.12555e-16 0.127022 0)
(0 0.125293 0)
(-2.10443e-16 0.123569 0)
(0 0.12185 0)
(-2.08886e-16 0.120139 0)
(0 0.118432 0)
(-2.06846e-16 0.116731 0)
(0 0.115036 0)
(2.04845e-16 0.113346 0)
(0 0.111662 0)
(0 0.109984 0)
(-2.01915e-16 0.108311 0)
(0 0.106644 0)
(0 0.104983 0)
(0 0.103329 0)
(-1.98136e-16 0.10168 0)
(-1.97214e-16 0.100036 0)
(0 0.0983983 0)
(0 0.0967663 0)
(0 0.0951404 0)
(0 0.0935206 0)
(0 0.0919069 0)
(0 0.0902984 0)
(-1.90988e-16 0.0886962 0)
(0 0.0871002 0)
(-1.8907e-16 0.0855097 0)
(-1.8823e-16 0.0839256 0)
(0 0.0823479 0)
(0 0.0807757 0)
(-1.85549e-16 0.0792093 0)
(0 0.0776494 0)
(0 0.0760953 0)
(0 0.074547 0)
(0 0.0730055 0)
(-1.81378e-16 0.0714706 0)
(0 0.0699417 0)
(0 0.0684181 0)
(0 0.0669005 0)
(0 0.0653899 0)
(0 0.0638854 0)
(1.76282e-16 0.0623871 0)
(0 0.0608952 0)
(0 0.0594095 0)
(0 0.0579303 0)
(0 0.0564567 0)
(0 0.0549896 0)
(0 0.0535291 0)
(0 0.052075 0)
(0 0.0506275 0)
(0 0.049186 0)
(0 0.0477505 0)
(0 0.0463217 0)
(0 0.0448996 0)
(0 0.0434837 0)
(0 0.042074 0)
(0 0.0406712 0)
(0 0.0392753 0)
(0 0.0378851 0)
(0 0.0365013 0)
(-1.61186e-16 0.0351245 0)
(-1.60423e-16 0.0337541 0)
(0 0.0323904 0)
(0 0.0310331 0)
(-1.58176e-16 0.0296824 0)
(1.57441e-16 0.0283383 0)
(-1.56713e-16 0.0270008 0)
(0 0.02567 0)
(-1.55276e-16 0.024346 0)
(0 0.0230287 0)
(-1.53726e-16 0.0217178 0)
(0 0.0204132 0)
(0 0.0191156 0)
(-1.51662e-16 0.0178248 0)
(0 0.0165409 0)
(0 0.0152634 0)
(0 0.0139925 0)
(0 0.0127283 0)
(0 0.0114711 0)
(-1.47438e-16 0.0102209 0)
(0 0.00897702 0)
(1.4604e-16 0.00773988 0)
(0 0.00650988 0)
(0 0.00528667 0)
(-1.43931e-16 0.0040699 0)
(0 0.00286008 0)
(0 0.0016574 0)
(0 0.000461624 0)
(0 -0.000727476 0)
(-1.40703e-16 -0.00190957 0)
(0 -0.00308514 0)
(0 -0.0042537 0)
(-1.38631e-16 -0.0054152 0)
(0 -0.00657013 0)
(0 -0.0077178 0)
(0 -0.00885869 0)
(1.36179e-16 -0.00999259 0)
(-1.35417e-16 -0.0111195 0)
(-1.34878e-16 -0.0122395 0)
(-1.3413e-16 -0.0133526 0)
(1.33601e-16 -0.0144588 0)
(0 -0.0155577 0)
(0 -0.0166497 0)
(0 -0.0177347 0)
(0 -0.0188129 0)
(-1.30514e-16 -0.019884 0)
(0 -0.0209477 0)
(-1.29219e-16 -0.0220046 0)
(0 -0.0230545 0)
(0 -0.0240973 0)
(-1.27469e-16 -0.0251329 0)
(-1.26801e-16 -0.0261617 0)
(0 -0.0271833 0)
(0 -0.0281975 0)
(0 -0.0292049 0)
(0 -0.0302054 0)
(0 -0.0311986 0)
(0 -0.0321846 0)
(0 -0.0331634 0)
(0 -0.0341353 0)
(0 -0.0350999 0)
(0 -0.0360572 0)
(0 -0.0370073 0)
(0 -0.0379504 0)
(-1.193e-16 -0.0388862 0)
(0 -0.0398147 0)
(-1.18218e-16 -0.0407361 0)
(0 -0.0416503 0)
(-2.34149e-16 -0.0425572 0)
(0 -0.0434569 0)
(-2.32064e-16 -0.0443492 0)
(0 -0.0452343 0)
(0 -0.0461123 0)
(2.28773e-16 -0.0469832 0)
(0 -0.0478468 0)
(-1.13391e-16 -0.0487029 0)
(0 -0.0495515 0)
(0 -0.0503929 0)
(0 -0.0512272 0)
(0 -0.052054 0)
(0 -0.0528734 0)
(0 -0.0536858 0)
(0 -0.0544908 0)
(0 -0.0552886 0)
(4.34654e-16 -0.0560789 0)
(0 -0.0568618 0)
(0 -0.0576372 0)
(0 -0.0584054 0)
(0 -0.0591662 0)
(0 -0.0599194 0)
(0 -0.0606652 0)
(2.10312e-16 -0.0614038 0)
(-2.09273e-16 -0.0621346 0)
(0 -0.062858 0)
(0 -0.0635743 0)
(0 -0.0642831 0)
(0 -0.0649846 0)
(0 -0.0656781 0)
(0 -0.0663639 0)
(-2.02518e-16 -0.0670426 0)
(0 -0.067714 0)
(0 -0.0683776 0)
(-1.99772e-16 -0.0690336 0)
(0 -0.0696824 0)
(0 -0.0703237 0)
(0 -0.0709575 0)
(0 -0.0715838 0)
(0 -0.0722025 0)
(-1.94051e-16 -0.0728134 0)
(0 -0.0734167 0)
(-1.92289e-16 -0.0740126 0)
(0 -0.0746005 0)
(0 -0.0751805 0)
(1.89599e-16 -0.0757533 0)
(0 -0.0763187 0)
(0 -0.0768766 0)
(0 -0.0774267 0)
(0 -0.0779688 0)
(0 -0.0785031 0)
(1.84338e-16 -0.0790303 0)
(-1.83539e-16 -0.0795492 0)
(0 -0.0800604 0)
(0 -0.0805642 0)
(0 -0.0810599 0)
(0 -0.0815478 0)
(0 -0.0820282 0)
(0 -0.0825004 0)
(-1.77482e-16 -0.0829643 0)
(-1.76741e-16 -0.0834204 0)
(-1.75915e-16 -0.0838687 0)
(0 -0.0843095 0)
(0 -0.0847423 0)
(0 -0.0851672 0)
(0 -0.0855846 0)
(0 -0.0859941 0)
(0 -0.0863951 0)
(0 -0.0867881 0)
(-1.69407e-16 -0.0871735 0)
(0 -0.0875504 0)
(0 -0.087919 0)
(0 -0.08828 0)
(-1.66248e-16 -0.0886331 0)
(-1.65436e-16 -0.0889776 0)
(0 -0.0893144 0)
(0 -0.0896434 0)
(0 -0.0899643 0)
(0 -0.090277 0)
(0 -0.0905814 0)
(0 -0.0908776 0)
(-1.6012e-16 -0.0911655 0)
(0 -0.0914451 0)
(0 -0.0917163 0)
(-1.57881e-16 -0.0919792 0)
(1.57149e-16 -0.0922338 0)
(0 -0.0924801 0)
(0 -0.0927174 0)
(0 -0.0929463 0)
(-1.54216e-16 -0.0931668 0)
(-3.07035e-16 -0.0933783 0)
(-1.52756e-16 -0.0935812 0)
(0 -0.0937762 0)
(0 -0.0939626 0)
(0 -0.0941405 0)
(-1.49917e-16 -0.0943097 0)
(0 -0.0944702 0)
(-1.48537e-16 -0.0946224 0)
(0 -0.0947658 0)
(-1.47182e-16 -0.0948999 0)
(0 -0.0950252 0)
(0 -0.0951422 0)
(-1.4504e-16 -0.0952503 0)
(0 -0.0953496 0)
(-1.43748e-16 -0.0954402 0)
(0 -0.0955219 0)
(0 -0.0955938 0)
(0 -0.0956567 0)
(-1.41055e-16 -0.0957106 0)
(0 -0.0957554 0)
(0 -0.0957917 0)
(0 -0.095819 0)
(0 -0.095837 0)
(-1.37729e-16 -0.0958452 0)
(0 -0.0958441 0)
(0 -0.0958346 0)
(0 -0.0958151 0)
(-2.70402e-16 -0.0957855 0)
(0 -0.095747 0)
(-1.33971e-16 -0.0956991 0)
(1.33339e-16 -0.0956417 0)
(-1.32712e-16 -0.0955753 0)
(0 -0.0954992 0)
(-1.31476e-16 -0.0954128 0)
(0 -0.0953169 0)
(0 -0.0952113 0)
(-2.5923e-16 -0.0950952 0)
(-2.58045e-16 -0.0949694 0)
(-1.28387e-16 -0.0948344 0)
(0 -0.0946903 0)
(0 -0.0945358 0)
(0 -0.0943706 0)
(-2.51999e-16 -0.0941953 0)
(0 -0.0940106 0)
(2.49678e-16 -0.0938166 0)
(1.24244e-16 -0.0936125 0)
(0 -0.0933984 0)
(0 -0.093174 0)
(0 -0.0929387 0)
(0 -0.0926933 0)
(-1.21395e-16 -0.0924382 0)
(0 -0.0921727 0)
(-1.20232e-16 -0.0918962 0)
(0 -0.0916093 0)
(0 -0.0913126 0)
(1.18549e-16 -0.0910055 0)
(0 -0.0906871 0)
(0 -0.0903581 0)
(1.16913e-16 -0.0900193 0)
(0 -0.0896699 0)
(0 -0.0893097 0)
(0 -0.0889387 0)
(0 -0.0885572 0)
(0 -0.0881649 0)
(0 -0.0877617 0)
(0 -0.0873477 0)
(0 -0.0869232 0)
(-1.12041e-16 -0.0864869 0)
(0 -0.0860398 0)
(0 -0.0855825 0)
(-2.20941e-16 -0.0851135 0)
(0 -0.0846337 0)
(0 -0.0841439 0)
(-1.08943e-16 -0.0836425 0)
(-2.1684e-16 -0.0831301 0)
(0 -0.0826075 0)
(0 -0.0820733 0)
(0 -0.0815281 0)
(0 -0.080972 0)
(0 -0.080405 0)
(0 -0.0798271 0)
(-1.04928e-16 -0.0792383 0)
(0 -0.0786388 0)
(0 -0.0780276 0)
(1.03454e-16 -0.0774063 0)
(0 -0.0767748 0)
(-2.04969e-16 -0.0761316 0)
(1.02021e-16 -0.0754777 0)
(-1.01532e-16 -0.0748129 0)
(0 -0.0741373 0)
(0 -0.0734515 0)
(-1.00122e-16 -0.0727543 0)
(0 -0.0720459 0)
(9.91842e-17 -0.0713276 0)
(0 -0.0705989 0)
(0 -0.0698595 0)
(0 -0.0691104 0)
(0 -0.0683511 0)
(-9.68591e-17 -0.0675808 0)
(0 -0.0668001 0)
(-9.59811e-17 -0.0660094 0)
(0 -0.0652079 0)
(-9.50654e-17 -0.0643961 0)
(9.46406e-17 -0.063575 0)
(1.88387e-16 -0.0627448 0)
(0 -0.0619045 0)
(0 -0.0610545 0)
(0 -0.0601948 0)
(0 -0.0593254 0)
(-9.20188e-17 -0.0584458 0)
(-9.15711e-17 -0.0575564 0)
(0 -0.0566575 0)
(-9.0713e-17 -0.0557495 0)
(0 -0.0548332 0)
(8.98709e-17 -0.0539087 0)
(0 -0.0529747 0)
(-8.90208e-17 -0.0520309 0)
(8.86249e-17 -0.0510792 0)
(0 -0.0501196 0)
(0 -0.0491513 0)
(0 -0.0481746 0)
(-8.69644e-17 -0.0471888 0)
(0 -0.0461949 0)
(0 -0.0451935 0)
(0 -0.0441843 0)
(0 -0.0431665 0)
(-8.49369e-17 -0.0421409 0)
(0 -0.0411084 0)
(-8.41563e-17 -0.0400677 0)
(0 -0.0390193 0)
(-8.33694e-17 -0.0379642 0)
(0 -0.036902 0)
(0 -0.035832 0)
(0 -0.034755 0)
(0 -0.0336719 0)
(0 -0.0325818 0)
(0 -0.0314846 0)
(8.06698e-17 -0.0303808 0)
(-8.02875e-17 -0.0292697 0)
(0 -0.0281518 0)
(-7.95336e-17 -0.0270272 0)
(-7.9162e-17 -0.0258955 0)
(-7.87938e-17 -0.0247574 0)
(0 -0.0236136 0)
(0 -0.022464 0)
(0 -0.0213081 0)
(0 -0.0201459 0)
(0 -0.0189774 0)
(-7.66026e-17 -0.0178021 0)
(0 -0.0166204 0)
(0 -0.015433 0)
(-7.55436e-17 -0.0142387 0)
(0 -0.0130373 0)
(0 -0.0118294 0)
(-1.48929e-16 -0.0106151 0)
(-7.41386e-17 -0.00939505 0)
(0 -0.00816922 0)
(0 -0.006936 0)
(0 -0.00569637 0)
(-7.27379e-17 -0.00445 0)
(0 -0.00319608 0)
(0 -0.00193545 0)
(0 -0.000651707 0)
)
;

boundaryField
{
    INLET
    {
        type            cyclic;
    }
    OUTLET
    {
        type            cyclic;
    }
    CENTER
    {
        type            symmetryPlane;
    }
    WALL
    {
        type            extrapolatedCalculated;
        value           uniform (0 9.48315 0);
    }
    frontAndBackPlanes
    {
        type            empty;
    }
}


// ************************************************************************* //
