/*--------------------------------*- C++ -*----------------------------------*\
| =========                 |                                                 |
| \\      /  F ield         | OpenFOAM: The Open Source CFD Toolbox           |
|  \\    /   O peration     | Version:  v1806                                 |
|   \\  /    A nd           | Web:      www.OpenFOAM.com                      |
|    \\/     M anipulation  |                                                 |
\*---------------------------------------------------------------------------*/
FoamFile
{
    version     2.0;
    format      ascii;
    class       volTensorField;
    location    "10000";
    object      grad(U);
}
// * * * * * * * * * * * * * * * * * * * * * * * * * * * * * * * * * * * * * //

dimensions      [0 0 -1 0 0 0 0];


internalField   nonuniform List<tensor> 
1025
(
(0 0 0 174.44 -8.54314e-12 0 0 0 0)
(0 0 0 171.768 -2.94835e-12 0 0 0 0)
(-3.40294e-17 0 0 159.216 4.63963e-13 0 0 0 0)
(-1.01611e-16 1.44399e-30 0 130.593 3.25071e-13 0 0 0 0)
(0 0 0 95.3772 3.08286e-14 0 0 0 0)
(0 0 0 67.3205 -2.18189e-14 0 0 0 0)
(-6.67923e-17 9.49175e-31 0 49.0923 -7.24579e-15 0 0 0 0)
(0 -4.72371e-31 0 37.7024 6.1998e-16 0 0 0 0)
(6.61678e-17 0 0 30.386 1.74146e-15 0 0 0 0)
(0 0 0 25.4453 1.36606e-15 0 0 0 0)
(0 0 0 21.9351 1.01044e-15 0 0 0 0)
(0 0 0 19.3291 7.61194e-16 0 0 0 0)
(0 0 0 17.3233 6.22964e-16 0 0 0 0)
(-1.93899e-16 9.1849e-31 0 15.7339 5.10174e-16 0 0 0 0)
(-6.43298e-17 9.14181e-31 0 14.4441 3.83426e-16 0 0 0 0)
(-6.40295e-17 9.09913e-31 0 13.3768 2.8362e-16 0 0 0 0)
(-6.37289e-17 0 0 12.4794 2.16793e-16 0 0 0 0)
(0 0 0 11.7145 1.55907e-16 0 0 0 0)
(0 0 0 11.0551 1.20702e-16 0 0 0 0)
(0 0 0 10.4809 7.72972e-17 0 0 0 0)
(0 0 0 9.97682 6.07971e-17 0 0 0 0)
(6.22496e-17 0 0 9.53094 5.0895e-17 0 0 0 0)
(6.19582e-17 0 0 9.13403 2.97792e-18 0 0 0 0)
(0 0 0 8.77871 -1.66333e-17 0 0 0 0)
(6.13778e-17 -8.72231e-31 0 8.45902 -1.28523e-17 0 0 0 0)
(0 0 0 8.17013 -3.52113e-17 0 0 0 0)
(0 0 0 7.90805 2.98779e-17 0 0 0 0)
(0 0 0 7.66943 4.30383e-17 0 0 0 0)
(6.02407e-17 -8.56072e-31 0 7.45148 3.27453e-17 0 0 0 0)
(0 0 0 7.25186 8.23401e-17 0 0 0 0)
(0 0 0 7.06852 -3.82084e-17 0 0 0 0)
(0 0 0 6.89978 -9.28318e-18 0 0 0 0)
(0 0 0 6.74413 4.5568e-17 0 0 0 0)
(-5.88348e-17 0 0 6.60025 -2.35797e-17 0 0 0 0)
(0 0 0 6.46706 -1.01673e-17 0 0 0 0)
(0 0 0 6.34357 -2.76676e-17 0 0 0 0)
(0 0 0 6.22893 -1.50553e-18 0 0 0 0)
(0 0 0 6.12233 6.00492e-17 0 0 0 0)
(-5.7468e-17 0 0 6.02309 3.5243e-17 0 0 0 0)
(-5.72072e-17 0 0 5.93063 5.64712e-17 0 0 0 0)
(0 0 0 5.84441 6.99996e-17 0 0 0 0)
(-1.13337e-16 0 0 5.76393 3.20585e-17 0 0 0 0)
(-5.64027e-17 0 0 5.68875 3.51481e-18 0 0 0 0)
(0 0 0 5.61848 -3.24833e-17 0 0 0 0)
(0 7.94085e-31 0 5.55277 4.53879e-17 0 0 0 0)
(0 0 0 5.49129 4.62257e-17 0 0 0 0)
(-1.10706e-16 7.86613e-31 0 5.43374 -2.42495e-17 0 0 0 0)
(0 0 0 5.37988 8.63702e-18 0 0 0 0)
(0 0 0 5.32944 1.97909e-17 0 0 0 0)
(0 0 0 5.28219 -5.20992e-19 0 0 0 0)
(0 0 0 5.23793 -5.43082e-17 0 0 0 0)
(0 0 0 5.19649 2.52699e-17 0 0 0 0)
(0 0 0 5.15767 1.6414e-17 0 0 0 0)
(-1.07143e-16 1.5226e-30 0 5.12133 -1.20627e-17 0 0 0 0)
(0 0 0 5.08732 9.27709e-17 0 0 0 0)
(0 0 0 5.05547 2.85791e-17 0 0 0 0)
(0 0 0 5.02568 -3.32259e-17 0 0 0 0)
(0 0 0 4.99784 1.88658e-17 0 0 0 0)
(0 0 0 4.97183 7.58534e-17 0 0 0 0)
(-1.0415e-16 0 0 4.94754 5.79625e-17 0 0 0 0)
(0 0 0 4.92488 5.83678e-18 0 0 0 0)
(0 0 0 4.90376 1.33449e-17 0 0 0 0)
(-1.02696e-16 0 0 4.8841 3.86244e-17 0 0 0 0)
(0 0 0 4.86582 1.52666e-17 0 0 0 0)
(0 0 0 4.84885 -5.68854e-17 0 0 0 0)
(0 0 0 4.83311 -5.86368e-17 0 0 0 0)
(0 0 0 4.81855 -2.78546e-17 0 0 0 0)
(0 0 0 4.8051 6.17024e-17 0 0 0 0)
(-9.98295e-17 7.09331e-31 0 4.79271 9.50921e-17 0 0 0 0)
(0 7.06135e-31 0 4.78132 1.16561e-16 0 0 0 0)
(-9.8897e-17 7.02705e-31 0 4.77088 1.02637e-16 0 0 0 0)
(-9.84556e-17 0 0 4.76135 3.10406e-17 0 0 0 0)
(0 0 0 4.75268 5.87776e-17 0 0 0 0)
(0 -6.92868e-31 0 4.74482 -3.95618e-17 0 0 0 0)
(0 0 0 4.73775 1.17565e-18 0 0 0 0)
(0 6.8642e-31 0 4.73142 1.75279e-17 0 0 0 0)
(0 0 0 4.72578 -3.03796e-18 0 0 0 0)
(0 0 0 4.72082 -8.265e-18 0 0 0 0)
(0 0 0 4.71649 -9.45316e-18 0 0 0 0)
(0 0 0 4.71276 -1.17554e-17 0 0 0 0)
(0 0 0 4.70962 4.30912e-17 0 0 0 0)
(0 0 0 4.70703 3.18199e-17 0 0 0 0)
(-9.34998e-17 0 0 4.70496 -1.57862e-17 0 0 0 0)
(0 0 0 4.70339 1.68268e-17 0 0 0 0)
(0 0 0 4.70228 -2.05879e-17 0 0 0 0)
(0 0 0 4.70164 1.48318e-17 0 0 0 0)
(0 0 0 4.70142 8.4457e-19 0 0 0 0)
(-9.13223e-17 6.48884e-31 0 4.70161 1.02847e-17 0 0 0 0)
(0 0 0 4.70219 -7.0737e-18 0 0 0 0)
(0 0 0 4.70314 -4.99619e-17 0 0 0 0)
(0 0 0 4.70444 1.17558e-17 0 0 0 0)
(0 0 0 4.70609 8.21693e-17 0 0 0 0)
(0 0 0 4.70804 5.50471e-17 0 0 0 0)
(0 0 0 4.7103 1.82746e-17 0 0 0 0)
(0 0 0 4.71284 5.20156e-17 0 0 0 0)
(0 0 0 4.71566 4.62402e-17 0 0 0 0)
(0 6.22058e-31 0 4.71873 1.2235e-16 0 0 0 0)
(-1.74258e-16 0 0 4.72206 1.79103e-16 0 0 0 0)
(-8.67151e-17 6.16148e-31 0 4.72561 4.5488e-17 0 0 0 0)
(0 0 0 4.72939 1.54923e-17 0 0 0 0)
(0 0 0 4.73338 1.36714e-17 0 0 0 0)
(0 0 0 4.73756 -2.51757e-18 0 0 0 0)
(0 0 0 4.74193 -3.99385e-17 0 0 0 0)
(0 0 0 4.74648 1.62707e-17 0 0 0 0)
(0 0 0 4.75119 4.48643e-17 0 0 0 0)
(0 0 0 4.75606 5.64433e-17 0 0 0 0)
(-1.67054e-16 5.93497e-31 0 4.76108 1.21865e-16 0 0 0 0)
(0 0 0 4.76624 -4.66982e-17 0 0 0 0)
(0 0 0 4.77152 -8.43714e-17 0 0 0 0)
(0 0 0 4.77693 4.5834e-17 0 0 0 0)
(-1.63925e-16 0 0 4.78246 1.25959e-17 0 0 0 0)
(0 0 0 4.78809 5.39593e-17 0 0 0 0)
(-1.62391e-16 5.7693e-31 0 4.79382 8.7476e-17 0 0 0 0)
(1.61648e-16 0 0 4.79964 -8.27768e-19 0 0 0 0)
(0 0 0 4.80555 -4.86554e-17 0 0 0 0)
(0 0 0 4.81154 -8.22649e-17 0 0 0 0)
(1.59384e-16 0 0 4.8176 -7.84081e-17 0 0 0 0)
(-1.58644e-16 5.63617e-31 0 4.82373 -3.23356e-17 0 0 0 0)
(-7.89436e-17 0 0 4.82991 3.80138e-17 0 0 0 0)
(0 0 0 4.83616 1.02876e-16 0 0 0 0)
(0 0 0 4.84245 1.34316e-16 0 0 0 0)
(0 0 0 4.84878 1.00688e-16 0 0 0 0)
(-1.54953e-16 5.50502e-31 0 4.85515 2.39764e-17 0 0 0 0)
(0 0 0 4.86156 6.80352e-18 0 0 0 0)
(0 0 0 4.86799 5.94787e-17 0 0 0 0)
(0 0 0 4.87444 8.83019e-17 0 0 0 0)
(-1.52081e-16 5.40302e-31 0 4.88093 6.36286e-17 0 0 0 0)
(-1.51364e-16 0 0 4.88743 4.81162e-17 0 0 0 0)
(1.50632e-16 0 0 4.89393 2.71325e-17 0 0 0 0)
(-1.49949e-16 0 0 4.90044 1.08694e-17 0 0 0 0)
(0 0 0 4.90696 9.43131e-17 0 0 0 0)
(0 5.27719e-31 0 4.91348 1.48701e-16 0 0 0 0)
(0 0 0 4.91999 6.63229e-17 0 0 0 0)
(0 0 0 4.9265 2.19054e-17 0 0 0 0)
(0 0 0 4.93299 7.66887e-17 0 0 0 0)
(-1.45779e-16 0 0 4.93947 9.02343e-17 0 0 0 0)
(0 0 0 4.94594 8.48271e-17 0 0 0 0)
(-1.44407e-16 5.13036e-31 0 4.95238 4.26718e-17 0 0 0 0)
(0 0 0 4.9588 2.06766e-17 0 0 0 0)
(0 -5.08253e-31 0 4.96519 6.55126e-18 0 0 0 0)
(0 0 0 4.97156 -8.45756e-19 0 0 0 0)
(0 0 0 4.97789 -3.47608e-17 0 0 0 0)
(1.41059e-16 0 0 4.98419 -3.83709e-17 0 0 0 0)
(-1.40405e-16 4.98817e-31 0 4.99045 5.00689e-17 0 0 0 0)
(-2.79475e-16 9.92895e-31 0 4.99667 9.2611e-18 0 0 0 0)
(0 0 0 5.00285 -3.08688e-17 0 0 0 0)
(-1.3844e-16 4.91839e-31 0 5.00899 2.13619e-17 0 0 0 0)
(-1.37792e-16 4.89534e-31 0 5.01508 9.88702e-17 0 0 0 0)
(0 0 0 5.02112 6.353e-17 0 0 0 0)
(0 0 0 5.02712 9.22757e-18 0 0 0 0)
(0 0 0 5.03306 4.48594e-17 0 0 0 0)
(0 0 0 5.03895 6.91498e-18 0 0 0 0)
(-1.34586e-16 0 0 5.04478 -2.54463e-17 0 0 0 0)
(0 0 0 5.05054 3.56861e-18 0 0 0 0)
(0 0 0 5.05626 4.57812e-18 0 0 0 0)
(0 0 0 5.06191 -3.80499e-17 0 0 0 0)
(1.32085e-16 0 0 5.0675 -1.0483e-16 0 0 0 0)
(0 0 0 5.07303 -1.37492e-16 0 0 0 0)
(2.61688e-16 -1.39456e-30 0 5.07849 -1.57393e-16 0 0 0 0)
(0 4.62736e-31 0 5.08388 -8.25582e-17 0 0 0 0)
(0 0 0 5.0892 2.0461e-17 0 0 0 0)
(1.29011e-16 -4.58338e-31 0 5.09445 -2.13962e-17 0 0 0 0)
(0 0 0 5.09963 -3.94437e-17 0 0 0 0)
(0 0 0 5.10474 2.17808e-17 0 0 0 0)
(0 0 0 5.10978 4.3363e-17 0 0 0 0)
(0 0 0 5.11474 1.03651e-17 0 0 0 0)
(0 0 0 5.11962 2.86524e-17 0 0 0 0)
(0 0 0 5.12443 6.91573e-17 0 0 0 0)
(0 0 0 5.12916 -4.71903e-17 0 0 0 0)
(-1.2433e-16 0 0 5.13383 -4.94864e-17 0 0 0 0)
(-1.23691e-16 0 0 5.13841 1.94669e-16 0 0 0 0)
(0 0 0 5.14287 -9.65666e-18 0 0 0 0)
(0 0 0 5.14725 -1.47827e-16 0 0 0 0)
(-2.43961e-16 8.66724e-31 0 5.15158 5.42261e-17 0 0 0 0)
(0 0 0 5.15584 2.38356e-16 0 0 0 0)
(0 8.57829e-31 0 5.15999 -2.33993e-17 0 0 0 0)
(0 0 0 5.16406 -1.10793e-16 0 0 0 0)
(2.39275e-16 -8.50075e-31 0 5.16805 4.97465e-17 0 0 0 0)
(-1.19099e-16 0 0 5.17193 -9.77442e-17 0 0 0 0)
(1.18566e-16 -8.4246e-31 0 5.17574 -4.29251e-17 0 0 0 0)
(0 8.38703e-31 0 5.17948 -3.8077e-17 0 0 0 0)
(0 0 0 5.18314 1.3712e-16 0 0 0 0)
(0 0 0 5.1867 1.73844e-16 0 0 0 0)
(0 0 0 5.19015 -4.25482e-17 0 0 0 0)
(1.15841e-16 -8.23103e-31 0 5.19352 4.01871e-18 0 0 0 0)
(0 0 0 5.19679 2.40964e-17 0 0 0 0)
(1.14712e-16 -8.15077e-31 0 5.19996 -5.81174e-17 0 0 0 0)
(0 0 0 5.20307 -9.35513e-17 0 0 0 0)
(0 0 0 5.2061 2.57869e-17 0 0 0 0)
(0 0 0 5.20904 1.76763e-16 0 0 0 0)
(0 0 0 5.21184 -7.48425e-17 0 0 0 0)
(-1.1216e-16 0 0 5.21458 1.77107e-16 0 0 0 0)
(0 0 0 5.21722 1.74649e-16 0 0 0 0)
(0 7.89419e-31 0 5.21977 1.04132e-16 0 0 0 0)
(-2.20812e-16 0 0 5.22222 7.52075e-17 0 0 0 0)
(2.20123e-16 0 0 5.22458 -1.54676e-17 0 0 0 0)
(0 0 0 5.22684 -1.10628e-16 0 0 0 0)
(0 0 0 5.22902 -4.57306e-17 0 0 0 0)
(0 0 0 5.2311 1.78742e-16 0 0 0 0)
(2.1586e-16 0 0 5.23308 -1.57045e-16 0 0 0 0)
(0 0 0 5.23499 -3.86391e-17 0 0 0 0)
(0 0 0 5.23682 5.02835e-17 0 0 0 0)
(0 7.56097e-31 0 5.23853 -1.45169e-17 0 0 0 0)
(0 0 0 5.24012 -1.38007e-16 0 0 0 0)
(-2.10915e-16 0 0 5.24164 -4.07549e-17 0 0 0 0)
(0 7.45606e-31 0 5.24307 2.12594e-16 0 0 0 0)
(0 0 0 5.24439 2.08008e-17 0 0 0 0)
(0 -7.39014e-31 0 5.24564 6.04239e-17 0 0 0 0)
(0 0 0 5.24677 4.70766e-17 0 0 0 0)
(0 0 0 5.24781 -1.0932e-16 0 0 0 0)
(0 0 0 5.24876 7.6623e-17 0 0 0 0)
(-2.04006e-16 0 0 5.24962 -9.26994e-18 0 0 0 0)
(0 0 0 5.25041 7.51839e-17 0 0 0 0)
(-2.02059e-16 7.17859e-31 0 5.25109 1.44342e-16 0 0 0 0)
(0 -7.14451e-31 0 5.25166 -2.04697e-16 0 0 0 0)
(0 0 0 5.25215 -1.80593e-16 0 0 0 0)
(0 0 0 5.25257 1.31387e-16 0 0 0 0)
(0 0 0 5.25288 -3.19593e-17 0 0 0 0)
(0 0 0 5.25309 -2.76324e-17 0 0 0 0)
(0 0 0 5.25321 1.35205e-16 0 0 0 0)
(-1.95529e-16 0 0 5.25322 -2.17354e-17 0 0 0 0)
(0 0 0 5.25316 2.0548e-16 0 0 0 0)
(0 0 0 5.25302 2.70242e-16 0 0 0 0)
(0 0 0 5.25277 -4.88066e-18 0 0 0 0)
(0 0 0 5.25244 3.34822e-17 0 0 0 0)
(0 0 0 5.252 -7.4581e-17 0 0 0 0)
(0 0 0 5.25147 -3.49737e-17 0 0 0 0)
(0 0 0 5.25087 1.42785e-16 0 0 0 0)
(0 6.69321e-31 0 5.25017 1.34414e-16 0 0 0 0)
(0 6.65767e-31 0 5.24937 -4.69977e-17 0 0 0 0)
(0 0 0 5.24849 -9.66411e-17 0 0 0 0)
(0 0 0 5.24754 9.78029e-17 0 0 0 0)
(0 6.56472e-31 0 5.24647 5.97204e-19 0 0 0 0)
(0 0 0 5.24531 -3.9968e-17 0 0 0 0)
(-1.83182e-16 0 0 5.24407 5.01687e-17 0 0 0 0)
(-1.82393e-16 6.4799e-31 0 5.24278 1.52893e-16 0 0 0 0)
(0 0 0 5.24139 1.46639e-16 0 0 0 0)
(0 0 0 5.23989 -2.14023e-17 0 0 0 0)
(0 0 0 5.23831 1.04659e-16 0 0 0 0)
(-1.7885e-16 0 0 5.23664 2.15523e-16 0 0 0 0)
(0 6.3273e-31 0 5.23489 1.46501e-16 0 0 0 0)
(0 0 0 5.23305 1.07225e-16 0 0 0 0)
(-3.5293e-16 0 0 5.23114 1.18023e-16 0 0 0 0)
(0 0 0 5.22913 -1.0192e-16 0 0 0 0)
(3.49725e-16 -6.21236e-31 0 5.22704 -1.02623e-16 0 0 0 0)
(0 0 0 5.22487 1.39195e-17 0 0 0 0)
(0 0 0 5.22262 -7.19534e-17 0 0 0 0)
(0 0 0 5.22028 4.23084e-17 0 0 0 0)
(0 0 0 5.21786 -4.46474e-17 0 0 0 0)
(1.70773e-16 0 0 5.21537 9.89014e-17 0 0 0 0)
(0 0 0 5.21279 1.4317e-16 0 0 0 0)
(0 0 0 5.21013 -2.88623e-17 0 0 0 0)
(0 0 0 5.2074 -3.29709e-18 0 0 0 0)
(3.35061e-16 0 0 5.20459 1.0064e-16 0 0 0 0)
(0 0 0 5.20167 1.55764e-17 0 0 0 0)
(0 5.8959e-31 0 5.19868 -6.20766e-17 0 0 0 0)
(-3.30356e-16 0 0 5.19562 3.66423e-17 0 0 0 0)
(0 5.84097e-31 0 5.19249 7.7913e-17 0 0 0 0)
(0 0 0 5.18929 1.83187e-16 0 0 0 0)
(-1.62891e-16 5.78705e-31 0 5.18602 2.10993e-16 0 0 0 0)
(-4.86428e-16 5.76046e-31 0 5.18267 2.10257e-16 0 0 0 0)
(0 0 0 5.17923 1.3827e-16 0 0 0 0)
(-1.60545e-16 5.70369e-31 0 5.17571 1.28374e-16 0 0 0 0)
(0 5.67786e-31 0 5.17211 1.37984e-16 0 0 0 0)
(0 5.65226e-31 0 5.16846 -7.10169e-17 0 0 0 0)
(0 0 0 5.16474 -8.7235e-17 0 0 0 0)
(0 0 0 5.16094 -6.05432e-17 0 0 0 0)
(0 0 0 5.15706 -1.14046e-16 0 0 0 0)
(0 0 0 5.15312 7.55637e-17 0 0 0 0)
(-3.10724e-16 0 0 5.14911 1.60587e-16 0 0 0 0)
(0 0 0 5.14502 9.60466e-17 0 0 0 0)
(0 0 0 5.14086 3.75271e-17 0 0 0 0)
(0 0 0 5.13663 -5.66145e-17 0 0 0 0)
(-3.05127e-16 0 0 5.13235 3.34046e-17 0 0 0 0)
(0 0 0 5.128 1.63364e-16 0 0 0 0)
(0 0 0 5.12357 4.28771e-17 0 0 0 0)
(0 0 0 5.11908 5.05347e-17 0 0 0 0)
(-2.99305e-16 0 0 5.11452 2.33516e-16 0 0 0 0)
(0 0 0 5.10988 2.21608e-16 0 0 0 0)
(0 0 0 5.10519 3.12925e-16 0 0 0 0)
(-2.95133e-16 5.24262e-31 0 5.10044 4.41482e-16 0 0 0 0)
(0 0 0 5.09561 3.41507e-16 0 0 0 0)
(0 0 0 5.09071 1.36558e-16 0 0 0 0)
(0 0 0 5.08577 7.28271e-17 0 0 0 0)
(0 0 0 5.08077 1.74528e-16 0 0 0 0)
(0 0 0 5.0757 2.13146e-16 0 0 0 0)
(-2.86935e-16 1.0194e-30 0 5.07057 1.30613e-16 0 0 0 0)
(0 -5.07294e-31 0 5.06538 3.59757e-17 0 0 0 0)
(0 0 0 5.06013 7.77683e-17 0 0 0 0)
(-2.8291e-16 5.02549e-31 0 5.05482 1.65371e-16 0 0 0 0)
(0 5.0021e-31 0 5.04945 1.44159e-16 0 0 0 0)
(0 0 0 5.04402 4.38969e-17 0 0 0 0)
(0 0 0 5.03854 2.0849e-17 0 0 0 0)
(0 -4.92999e-31 0 5.03299 -8.45156e-17 0 0 0 0)
(0 0 0 5.02739 -8.73832e-17 0 0 0 0)
(0 0 0 5.02174 3.70927e-19 0 0 0 0)
(0 0 0 5.01603 -1.53192e-17 0 0 0 0)
(0 0 0 5.01027 8.04251e-17 0 0 0 0)
(0 0 0 5.00445 6.60136e-17 0 0 0 0)
(0 0 0 4.99857 -3.60929e-17 0 0 0 0)
(0 4.77358e-31 0 4.99265 -9.4685e-18 0 0 0 0)
(0 0 0 4.98668 -2.85701e-17 0 0 0 0)
(0 0 0 4.98065 -5.20897e-17 0 0 0 0)
(0 0 0 4.97457 -6.73836e-17 0 0 0 0)
(0 0 0 4.96844 -9.58339e-17 0 0 0 0)
(0 0 0 4.96227 -6.35914e-17 0 0 0 0)
(2.61269e-16 -4.64106e-31 0 4.95604 9.95077e-17 0 0 0 0)
(0 0 0 4.94977 2.35921e-16 0 0 0 0)
(-2.58715e-16 0 0 4.94344 7.22465e-17 0 0 0 0)
(0 0 0 4.93707 -4.85888e-17 0 0 0 0)
(0 0 0 4.93066 8.87481e-17 0 0 0 0)
(0 9.06405e-31 0 4.9242 2.08906e-16 0 0 0 0)
(0 0 0 4.91768 5.21445e-17 0 0 0 0)
(0 0 0 4.91113 -6.54308e-18 0 0 0 0)
(0 0 0 4.90453 -6.54239e-18 0 0 0 0)
(0 0 0 4.89788 -5.36045e-17 0 0 0 0)
(0 0 0 4.8912 6.77907e-17 0 0 0 0)
(0 0 0 4.88447 -2.42847e-17 0 0 0 0)
(-2.46948e-16 8.77337e-31 0 4.87769 -1.34962e-16 0 0 0 0)
(0 0 0 4.87087 -2.12162e-16 0 0 0 0)
(2.44666e-16 0 0 4.86402 -1.82097e-16 0 0 0 0)
(0 0 0 4.85712 4.47286e-17 0 0 0 0)
(0 0 0 4.85018 8.37557e-17 0 0 0 0)
(0 0 0 4.8432 2.0607e-17 0 0 0 0)
(0 0 0 4.83619 -5.07102e-17 0 0 0 0)
(2.3887e-16 0 0 4.82914 -1.52146e-16 0 0 0 0)
(0 0 0 4.82205 -1.4567e-16 0 0 0 0)
(0 0 0 4.81492 -1.52862e-17 0 0 0 0)
(0 0 0 4.80776 4.3412e-17 0 0 0 0)
(0 0 0 4.80054 -3.55809e-17 0 0 0 0)
(0 0 0 4.7933 2.72549e-17 0 0 0 0)
(0 0 0 4.78603 9.61326e-17 0 0 0 0)
(-2.31177e-16 0 0 4.77871 3.61075e-17 0 0 0 0)
(0 0 0 4.77138 8.54986e-17 0 0 0 0)
(0 0 0 4.76401 1.37443e-16 0 0 0 0)
(-2.27942e-16 0 0 4.7566 1.13727e-16 0 0 0 0)
(2.26843e-16 -8.05909e-31 0 4.74915 -2.60274e-17 0 0 0 0)
(0 0 0 4.74167 -4.08417e-17 0 0 0 0)
(0 0 0 4.73416 1.32044e-16 0 0 0 0)
(0 7.9484e-31 0 4.72662 2.38766e-16 0 0 0 0)
(0 0 0 4.71905 1.01861e-16 0 0 0 0)
(0 0 0 4.71145 -5.92852e-17 0 0 0 0)
(0 0 0 4.70382 1.08061e-17 0 0 0 0)
(0 7.80007e-31 0 4.69617 2.12699e-17 0 0 0 0)
(-4.37066e-16 0 0 4.68848 -2.24358e-17 0 0 0 0)
(0 0 0 4.68077 1.0051e-16 0 0 0 0)
(-4.32822e-16 7.68847e-31 0 4.67302 1.41557e-16 0 0 0 0)
(0 0 0 4.66525 1.7576e-16 0 0 0 0)
(-4.28877e-16 7.61839e-31 0 4.65746 2.46797e-16 0 0 0 0)
(4.26932e-16 0 0 4.64964 1.6931e-16 0 0 0 0)
(0 0 0 4.64178 -7.04522e-17 0 0 0 0)
(4.22882e-16 -7.5119e-31 0 4.6339 -2.70479e-16 0 0 0 0)
(0 -7.47829e-31 0 4.626 -1.83503e-16 0 0 0 0)
(0 0 0 4.61808 -8.00613e-17 0 0 0 0)
(0 0 0 4.61013 2.61506e-17 0 0 0 0)
(0 0 0 4.60216 8.44794e-17 0 0 0 0)
(0 0 0 4.59416 -5.80928e-17 0 0 0 0)
(0 7.30404e-31 0 4.58614 -1.47083e-17 0 0 0 0)
(0 0 0 4.5781 9.39029e-17 0 0 0 0)
(0 0 0 4.57004 7.3868e-17 0 0 0 0)
(0 0 0 4.56196 8.699e-17 0 0 0 0)
(0 0 0 4.55385 7.47356e-17 0 0 0 0)
(0 0 0 4.54573 1.5661e-17 0 0 0 0)
(0 0 0 4.53759 -7.98975e-18 0 0 0 0)
(0 0 0 4.52943 2.90238e-17 0 0 0 0)
(0 0 0 4.52124 5.92367e-17 0 0 0 0)
(0 0 0 4.51304 1.34038e-16 0 0 0 0)
(-3.92327e-16 6.96912e-31 0 4.50483 3.19416e-16 0 0 0 0)
(-7.80676e-16 1.38676e-30 0 4.49658 2.29081e-16 0 0 0 0)
(0 0 0 4.48833 -1.40937e-16 0 0 0 0)
(0 0 0 4.48006 -2.31161e-16 0 0 0 0)
(0 0 0 4.47177 1.12941e-16 0 0 0 0)
(-3.83099e-16 1.36104e-30 0 4.46346 3.8124e-16 0 0 0 0)
(-3.81375e-16 6.77457e-31 0 4.45514 9.19997e-17 0 0 0 0)
(3.79665e-16 -6.74421e-31 0 4.4468 -2.43738e-16 0 0 0 0)
(0 0 0 4.43845 -2.58009e-16 0 0 0 0)
(3.76125e-16 0 0 4.43009 -4.70545e-18 0 0 0 0)
(0 0 0 4.42171 1.84556e-16 0 0 0 0)
(0 0 0 4.41332 1.49998e-17 0 0 0 0)
(0 0 0 4.40491 -9.10262e-17 0 0 0 0)
(0 0 0 4.39649 -4.97717e-17 0 0 0 0)
(0 0 0 4.38806 -9.91181e-17 0 0 0 0)
(0 0 0 4.37961 -1.26151e-16 0 0 0 0)
(0 0 0 4.37115 -7.13741e-17 0 0 0 0)
(-3.6229e-16 0 0 4.36268 4.83914e-17 0 0 0 0)
(0 0 0 4.3542 8.23519e-17 0 0 0 0)
(0 0 0 4.34571 5.59839e-17 0 0 0 0)
(3.57097e-16 0 0 4.3372 6.15178e-17 0 0 0 0)
(0 0 0 4.32869 1.71331e-16 0 0 0 0)
(0 0 0 4.32016 2.19053e-16 0 0 0 0)
(3.52197e-16 6.25627e-31 0 4.31164 -8.80865e-17 0 0 0 0)
(-3.50448e-16 6.22521e-31 0 4.3031 -2.22258e-16 0 0 0 0)
(0 0 0 4.29455 1.00585e-17 0 0 0 0)
(0 0 0 4.28599 1.14352e-16 0 0 0 0)
(-6.91173e-16 6.13885e-31 0 4.27742 2.05819e-16 0 0 0 0)
(-3.43903e-16 0 0 4.26884 3.22373e-16 0 0 0 0)
(0 0 0 4.26025 2.62548e-16 0 0 0 0)
(0 0 0 4.25166 1.71444e-16 0 0 0 0)
(0 0 0 4.24307 5.37046e-17 0 0 0 0)
(-3.37463e-16 0 0 4.23446 -1.26395e-16 0 0 0 0)
(6.71982e-16 -5.9684e-31 0 4.22585 -2.82413e-16 0 0 0 0)
(0 0 0 4.21723 -2.86322e-16 0 0 0 0)
(0 0 0 4.20861 -4.11054e-17 0 0 0 0)
(6.62521e-16 -5.88437e-31 0 4.19998 5.7614e-17 0 0 0 0)
(0 0 0 4.19135 -7.13481e-17 0 0 0 0)
(0 0 0 4.18271 9.3583e-17 0 0 0 0)
(0 5.80267e-31 0 4.17407 2.93505e-16 0 0 0 0)
(0 0 0 4.16543 1.74204e-16 0 0 0 0)
(0 0 0 4.15678 2.23417e-17 0 0 0 0)
(0 0 0 4.14812 4.07248e-17 0 0 0 0)
(0 0 0 4.13946 5.59043e-17 0 0 0 0)
(-6.38066e-16 5.66717e-31 0 4.1308 2.25296e-17 0 0 0 0)
(-3.17598e-16 5.64167e-31 0 4.12214 2.60683e-16 0 0 0 0)
(0 0 0 4.11347 3.99884e-16 0 0 0 0)
(0 0 0 4.1048 1.34586e-16 0 0 0 0)
(0 0 0 4.09612 -3.4798e-17 0 0 0 0)
(0 0 0 4.08745 3.88128e-18 0 0 0 0)
(0 0 0 4.07878 3.05707e-16 0 0 0 0)
(0 0 0 4.0701 4.17928e-16 0 0 0 0)
(0 5.45948e-31 0 4.06142 1.76002e-16 0 0 0 0)
(0 0 0 4.05274 8.35599e-17 0 0 0 0)
(0 5.40846e-31 0 4.04406 1.06325e-16 0 0 0 0)
(0 0 0 4.03538 2.72245e-16 0 0 0 0)
(-6.03085e-16 0 0 4.0267 3.4261e-16 0 0 0 0)
(0 0 0 4.01802 1.3479e-16 0 0 0 0)
(-5.97343e-16 0 0 4.00934 -6.29401e-17 0 0 0 0)
(0 0 0 4.00066 -6.64452e-17 0 0 0 0)
(0 0 0 3.99198 2.38959e-17 0 0 0 0)
(0 0 0 3.9833 6.99591e-17 0 0 0 0)
(0 5.20814e-31 0 3.97462 4.55383e-17 0 0 0 0)
(-5.83758e-16 5.18481e-31 0 3.96595 -4.17128e-17 0 0 0 0)
(0 0 0 3.95728 -6.16533e-17 0 0 0 0)
(-5.78179e-16 0 0 3.94861 -6.55702e-17 0 0 0 0)
(0 0 0 3.93994 -1.38077e-16 0 0 0 0)
(0 0 0 3.93127 2.12796e-17 0 0 0 0)
(0 5.0644e-31 0 3.9226 4.1026e-16 0 0 0 0)
(0 0 0 3.91394 3.18361e-16 0 0 0 0)
(0 0 0 3.90528 4.28875e-17 0 0 0 0)
(0 0 0 3.89662 4.77089e-17 0 0 0 0)
(0 0 0 3.88797 -6.22437e-17 0 0 0 0)
(0 0 0 3.87931 3.4544e-17 0 0 0 0)
(-5.5416e-16 0 0 3.87066 8.99154e-17 0 0 0 0)
(0 0 0 3.86202 -2.43697e-16 0 0 0 0)
(-5.48952e-16 4.87567e-31 0 3.85338 -2.70285e-16 0 0 0 0)
(0 0 0 3.84474 -1.05699e-17 0 0 0 0)
(0 0 0 3.83611 -2.81449e-17 0 0 0 0)
(5.41408e-16 -4.80867e-31 0 3.82749 -1.54247e-16 0 0 0 0)
(0 0 0 3.81886 -5.12275e-17 0 0 0 0)
(0 0 0 3.81025 1.40889e-16 0 0 0 0)
(0 0 0 3.80163 1.98522e-16 0 0 0 0)
(-5.31388e-16 0 0 3.79302 1.78858e-16 0 0 0 0)
(0 0 0 3.78442 1.25521e-16 0 0 0 0)
(0 0 0 3.77582 1.41201e-16 0 0 0 0)
(0 0 0 3.76723 2.00135e-16 0 0 0 0)
(-5.21411e-16 9.26213e-31 0 3.75864 9.09215e-17 0 0 0 0)
(0 0 0 3.75006 -4.60484e-17 0 0 0 0)
(5.16641e-16 -9.17739e-31 0 3.74149 -1.49738e-16 0 0 0 0)
(0 0 0 3.73292 -4.20886e-17 0 0 0 0)
(0 0 0 3.72436 1.57592e-16 0 0 0 0)
(0 0 0 3.7158 8.60668e-17 0 0 0 0)
(0 0 0 3.70725 8.18298e-17 0 0 0 0)
(0 0 0 3.69871 2.75932e-16 0 0 0 0)
(-5.02243e-16 8.92163e-31 0 3.69017 4.45975e-16 0 0 0 0)
(0 0 0 3.68164 3.56459e-16 0 0 0 0)
(0 0 0 3.67311 -2.36568e-17 0 0 0 0)
(0 0 0 3.6646 -2.52898e-16 0 0 0 0)
(0 0 0 3.65609 -1.9046e-16 0 0 0 0)
(0 0 0 3.64759 2.32848e-17 0 0 0 0)
(-9.76407e-16 8.67223e-31 0 3.6391 2.25204e-16 0 0 0 0)
(4.85963e-16 -8.63243e-31 0 3.63061 2.7045e-16 0 0 0 0)
(-4.83742e-16 8.59299e-31 0 3.62214 2.10496e-16 0 0 0 0)
(0 0 0 3.61367 2.23098e-16 0 0 0 0)
(-4.79091e-16 0 0 3.6052 2.53736e-16 0 0 0 0)
(0 0 0 3.59675 3.92668e-16 0 0 0 0)
(0 8.43168e-31 0 3.5883 4.18214e-16 0 0 0 0)
(0 0 0 3.57987 3.85264e-17 0 0 0 0)
(-4.70182e-16 0 0 3.57144 -8.16129e-17 0 0 0 0)
(0 0 0 3.56302 9.92911e-17 0 0 0 0)
(0 0 0 3.5546 6.83849e-17 0 0 0 0)
(0 8.23779e-31 0 3.5462 -5.67623e-17 0 0 0 0)
(1.38442e-15 -8.1974e-31 0 3.53781 -1.95576e-16 0 0 0 0)
(0 0 0 3.52942 -2.08527e-16 0 0 0 0)
(0 0 0 3.52105 -9.65246e-17 0 0 0 0)
(0 0 0 3.51268 -1.54573e-16 0 0 0 0)
(0 0 0 3.50432 -1.40816e-16 0 0 0 0)
(0 0 0 3.49597 1.51627e-17 0 0 0 0)
(0 0 0 3.48763 2.31123e-16 0 0 0 0)
(-4.46512e-16 7.93164e-31 0 3.4793 3.72101e-16 0 0 0 0)
(0 0 0 3.47098 2.24801e-16 0 0 0 0)
(0 0 0 3.46266 1.54803e-16 0 0 0 0)
(-4.4036e-16 0 0 3.45436 3.64104e-16 0 0 0 0)
(0 0 0 3.44607 4.461e-16 0 0 0 0)
(-4.36165e-16 0 0 3.43779 9.35345e-17 0 0 0 0)
(0 0 0 3.42951 -3.37792e-16 0 0 0 0)
(0 0 0 3.42125 -2.89429e-16 0 0 0 0)
(0 0 0 3.41299 4.61025e-17 0 0 0 0)
(0 0 0 3.40475 2.356e-16 0 0 0 0)
(-8.52146e-16 0 0 3.39652 3.02002e-16 0 0 0 0)
(0 0 0 3.3883 2.22141e-16 0 0 0 0)
(0 0 0 3.38008 -2.59482e-16 0 0 0 0)
(8.4031e-16 -7.46346e-31 0 3.37188 -7.93176e-16 0 0 0 0)
(-8.36369e-16 0 0 3.36369 -4.26709e-16 0 0 0 0)
(-8.3226e-16 0 0 3.35551 3.41191e-16 0 0 0 0)
(0 0 0 3.34733 4.27757e-16 0 0 0 0)
(0 0 0 3.33918 1.88772e-16 0 0 0 0)
(0 7.28989e-31 0 3.33103 1.24918e-16 0 0 0 0)
(0 0 0 3.32291 1.40351e-16 0 0 0 0)
(0 0 0 3.3148 2.69231e-17 0 0 0 0)
(0 0 0 3.30673 -1.01669e-16 0 0 0 0)
(0 0 0 3.29868 -7.73655e-17 0 0 0 0)
(0 0 0 3.29066 -1.77744e-18 0 0 0 0)
(0 0 0 3.28276 1.34894e-16 0 0 0 0)
(0 0 0 3.27486 4.3262e-16 0 0 0 0)
(0 0 0 3.26696 5.79921e-16 0 0 0 0)
(0 0 0 3.25904 5.18925e-16 0 0 0 0)
(0 0 0 3.25102 5.47572e-16 0 0 0 0)
(0 0 0 3.24301 5.09166e-16 0 0 0 0)
(0 6.89092e-31 0 3.23499 3.04e-16 0 0 0 0)
(0 0 0 3.22699 -9.51416e-17 0 0 0 0)
(7.68458e-16 -6.82528e-31 0 3.21899 -3.10358e-16 0 0 0 0)
(0 0 0 3.211 -5.37597e-17 0 0 0 0)
(-7.61378e-16 6.76239e-31 0 3.20302 2.5222e-16 0 0 0 0)
(0 0 0 3.19505 3.2194e-16 0 0 0 0)
(0 0 0 3.18709 1.98073e-16 0 0 0 0)
(-7.50749e-16 6.66799e-31 0 3.17914 2.41153e-16 0 0 0 0)
(0 0 0 3.17121 3.20755e-16 0 0 0 0)
(-7.43664e-16 6.60506e-31 0 3.16328 1.31961e-16 0 0 0 0)
(-7.40252e-16 0 0 3.15537 7.3797e-17 0 0 0 0)
(0 0 0 3.14747 2.56212e-16 0 0 0 0)
(7.33203e-16 -6.51215e-31 0 3.13957 3.29945e-16 0 0 0 0)
(0 0 0 3.1317 2.39385e-16 0 0 0 0)
(0 0 0 3.12383 1.94332e-16 0 0 0 0)
(0 0 0 3.11597 2.3944e-16 0 0 0 0)
(0 0 0 3.10813 3.60029e-16 0 0 0 0)
(0 0 0 3.1003 1.81017e-16 0 0 0 0)
(0 0 0 3.09248 -2.16882e-16 0 0 0 0)
(0 0 0 3.08467 -9.86944e-17 0 0 0 0)
(0 0 0 3.07687 3.5202e-16 0 0 0 0)
(-7.02932e-16 1.24866e-30 0 3.06908 7.455e-16 0 0 0 0)
(-6.99594e-16 6.21364e-31 0 3.06131 6.58648e-16 0 0 0 0)
(0 0 0 3.05354 -1.39335e-16 0 0 0 0)
(6.93011e-16 -6.15518e-31 0 3.04579 -6.93156e-16 0 0 0 0)
(0 0 0 3.03805 -4.72321e-16 0 0 0 0)
(0 0 0 3.03032 -1.02685e-17 0 0 0 0)
(0 -6.06952e-31 0 3.02261 1.86041e-16 0 0 0 0)
(-6.80211e-16 6.04149e-31 0 3.0149 7.46855e-17 0 0 0 0)
(0 0 0 3.00721 2.04075e-17 0 0 0 0)
(0 0 0 2.99953 3.01453e-17 0 0 0 0)
(0 0 0 2.99186 -9.89773e-17 0 0 0 0)
(0 0 0 2.9842 -3.89764e-16 0 0 0 0)
(6.6434e-16 -1.1801e-30 0 2.97656 -5.52479e-16 0 0 0 0)
(0 0 0 2.96893 -2.05008e-16 0 0 0 0)
(-6.5789e-16 5.84323e-31 0 2.96131 2.43358e-16 0 0 0 0)
(-6.55345e-16 5.82063e-31 0 2.9537 2.9895e-16 0 0 0 0)
(0 0 0 2.94609 -4.56748e-18 0 0 0 0)
(0 0 0 2.9385 -2.22905e-16 0 0 0 0)
(-6.4659e-16 5.74287e-31 0 2.93094 -9.01388e-17 0 0 0 0)
(0 5.71018e-31 0 2.92338 3.17716e-17 0 0 0 0)
(-6.3927e-16 5.67786e-31 0 2.91582 -4.58073e-17 0 0 0 0)
(0 0 0 2.90827 -2.39369e-16 0 0 0 0)
(6.34482e-16 0 0 2.90075 -2.40826e-16 0 0 0 0)
(0 0 0 2.89324 1.10811e-16 0 0 0 0)
(0 0 0 2.88573 1.57094e-16 0 0 0 0)
(0 0 0 2.87823 2.76388e-16 0 0 0 0)
(-1.24335e-15 1.10432e-30 0 2.87074 7.04202e-16 0 0 0 0)
(-6.19403e-16 5.5014e-31 0 2.86327 5.64563e-16 0 0 0 0)
(0 0 0 2.85583 2.09543e-16 0 0 0 0)
(6.12682e-16 -5.44171e-31 0 2.84838 -7.07438e-17 0 0 0 0)
(0 0 0 2.84094 -1.68962e-16 0 0 0 0)
(0 0 0 2.83353 2.0881e-17 0 0 0 0)
(0 0 0 2.82613 2.18201e-16 0 0 0 0)
(0 0 0 2.81873 3.78625e-16 0 0 0 0)
(-1.19722e-15 1.06334e-30 0 2.81133 2.73814e-16 0 0 0 0)
(0 0 0 2.80395 8.86181e-17 0 0 0 0)
(0 0 0 2.79658 1.59928e-16 0 0 0 0)
(0 0 0 2.78923 3.33177e-16 0 0 0 0)
(-5.88217e-16 5.22442e-31 0 2.7819 6.06211e-16 0 0 0 0)
(-5.8517e-16 0 0 2.77458 8.01677e-16 0 0 0 0)
(-5.82153e-16 1.03411e-30 0 2.76725 6.14059e-16 0 0 0 0)
(0 0 0 2.75995 3.08136e-16 0 0 0 0)
(0 0 0 2.75266 1.82502e-16 0 0 0 0)
(-5.7426e-16 5.10045e-31 0 2.74538 2.19953e-16 0 0 0 0)
(0 0 0 2.7381 1.88739e-16 0 0 0 0)
(0 0 0 2.73084 1.24664e-16 0 0 0 0)
(-5.66577e-16 5.03222e-31 0 2.7236 8.0863e-17 0 0 0 0)
(0 0 0 2.71637 -2.0799e-16 0 0 0 0)
(0 0 0 2.70915 -7.33597e-16 0 0 0 0)
(1.11635e-15 -4.9576e-31 0 2.70193 -6.97149e-16 0 0 0 0)
(0 0 0 2.69472 4.16302e-16 0 0 0 0)
(-1.10723e-15 0 0 2.68753 1.10579e-15 0 0 0 0)
(-1.10183e-15 0 0 2.68036 5.09107e-16 0 0 0 0)
(0 0 0 2.67319 -1.91578e-16 0 0 0 0)
(1.09119e-15 -9.69168e-31 0 2.66602 -3.95792e-16 0 0 0 0)
(0 0 0 2.65888 -2.90125e-16 0 0 0 0)
(0 0 0 2.65175 -4.64906e-16 0 0 0 0)
(1.0756e-15 -4.77661e-31 0 2.64463 -4.58762e-16 0 0 0 0)
(-1.0705e-15 0 0 2.63752 5.31932e-16 0 0 0 0)
(-1.06545e-15 9.4631e-31 0 2.63042 1.27944e-15 0 0 0 0)
(-1.06211e-15 9.43343e-31 0 2.62334 9.66783e-16 0 0 0 0)
(0 4.68733e-31 0 2.61627 1.75588e-16 0 0 0 0)
(0 4.66553e-31 0 2.6092 -3.3109e-16 0 0 0 0)
(0 -4.64393e-31 0 2.60215 -7.91477e-16 0 0 0 0)
(1.0409e-15 0 0 2.59511 -1.01961e-15 0 0 0 0)
(0 0 0 2.58808 -8.40826e-16 0 0 0 0)
(0 0 0 2.58106 -9.80387e-16 0 0 0 0)
(0 -4.5526e-31 0 2.57404 -7.86278e-16 0 0 0 0)
(0 0 0 2.56704 -9.97067e-17 0 0 0 0)
(0 0 0 2.56005 2.7498e-16 0 0 0 0)
(0 0 0 2.55308 1.50865e-16 0 0 0 0)
(0 0 0 2.54612 -1.14695e-16 0 0 0 0)
(0 0 0 2.53916 6.47364e-17 0 0 0 0)
(0 0 0 2.53222 1.57904e-16 0 0 0 0)
(-9.93587e-16 0 0 2.52529 -3.00556e-16 0 0 0 0)
(0 8.77337e-31 0 2.51837 -2.09021e-16 0 0 0 0)
(9.84922e-16 0 0 2.51147 7.09593e-16 0 0 0 0)
(-1.95846e-15 8.6973e-31 0 2.50458 1.22801e-15 0 0 0 0)
(1.9472e-15 -8.64731e-31 0 2.49768 9.14362e-16 0 0 0 0)
(0 0 0 2.4908 5.83781e-16 0 0 0 0)
(-9.6528e-16 8.57341e-31 0 2.48394 6.67365e-16 0 0 0 0)
(-1.92234e-15 8.53692e-31 0 2.47709 4.51204e-16 0 0 0 0)
(9.55749e-16 0 0 2.47024 -3.83048e-16 0 0 0 0)
(0 0 0 2.46341 -7.69521e-16 0 0 0 0)
(0 0 0 2.45659 -6.08256e-16 0 0 0 0)
(0 0 0 2.44978 -2.42275e-16 0 0 0 0)
(0 0 0 2.44297 8.63801e-16 0 0 0 0)
(-1.86931e-15 8.30142e-31 0 2.43618 1.67985e-15 0 0 0 0)
(0 0 0 2.4294 1.05873e-15 0 0 0 0)
(-9.25719e-16 8.22204e-31 0 2.42263 2.16625e-16 0 0 0 0)
(0 0 0 2.41588 5.37729e-17 0 0 0 0)
(0 0 0 2.40914 1.72408e-16 0 0 0 0)
(0 8.10031e-31 0 2.4024 2.43436e-16 0 0 0 0)
(9.08346e-16 -8.06774e-31 0 2.39567 9.65261e-19 0 0 0 0)
(9.04708e-16 0 0 2.38896 -2.26315e-16 0 0 0 0)
(-8.99902e-16 0 0 2.38226 -9.18406e-17 0 0 0 0)
(0 0 0 2.37556 -1.48503e-16 0 0 0 0)
(8.91614e-16 -7.91912e-31 0 2.36887 -3.5753e-16 0 0 0 0)
(0 0 0 2.3622 -1.08002e-16 0 0 0 0)
(0 0 0 2.35553 2.49346e-16 0 0 0 0)
(-8.78893e-16 7.80614e-31 0 2.34888 3.13608e-16 0 0 0 0)
(0 0 0 2.34224 2.59217e-16 0 0 0 0)
(0 0 0 2.3356 1.37148e-16 0 0 0 0)
(0 0 0 2.32898 5.07641e-17 0 0 0 0)
(0 0 0 2.32237 3.58308e-17 0 0 0 0)
(0 0 0 2.31578 3.25875e-17 0 0 0 0)
(0 0 0 2.30919 -1.1873e-16 0 0 0 0)
(-1.70044e-15 0 0 2.3026 -3.1205e-16 0 0 0 0)
(0 0 0 2.29603 -2.50401e-16 0 0 0 0)
(-1.68354e-15 0 0 2.28947 1.44397e-16 0 0 0 0)
(-8.38646e-16 0 0 2.28291 4.58404e-16 0 0 0 0)
(0 7.42112e-31 0 2.27638 2.02091e-16 0 0 0 0)
(0 0 0 2.26985 -1.60219e-16 0 0 0 0)
(0 0 0 2.26333 -4.51851e-16 0 0 0 0)
(0 -7.30404e-31 0 2.25681 -9.36166e-16 0 0 0 0)
(1.63876e-15 -7.27755e-31 0 2.25031 -1.16972e-15 0 0 0 0)
(0 0 0 2.24382 -5.89003e-16 0 0 0 0)
(0 0 0 2.23734 4.61396e-16 0 0 0 0)
(-8.0766e-16 7.17346e-31 0 2.23087 1.27356e-15 0 0 0 0)
(-8.03827e-16 7.13942e-31 0 2.2244 1.17057e-15 0 0 0 0)
(0 0 0 2.21795 4.72418e-16 0 0 0 0)
(0 0 0 2.21151 1.08558e-16 0 0 0 0)
(0 0 0 2.20509 -1.05385e-16 0 0 0 0)
(-7.88855e-16 7.00644e-31 0 2.19866 -1.93411e-16 0 0 0 0)
(0 0 0 2.19225 -9.55259e-17 0 0 0 0)
(0 0 0 2.18584 1.33185e-16 0 0 0 0)
(-7.77987e-16 6.90991e-31 0 2.17945 3.50005e-16 0 0 0 0)
(-7.7443e-16 0 0 2.17307 8.71412e-17 0 0 0 0)
(0 0 0 2.16669 -2.49879e-16 0 0 0 0)
(0 0 0 2.16033 -1.4496e-17 0 0 0 0)
(-7.63953e-16 0 0 2.15397 4.77634e-16 0 0 0 0)
(0 0 0 2.14763 8.56574e-16 0 0 0 0)
(0 6.71711e-31 0 2.14129 9.78879e-16 0 0 0 0)
(-1.50584e-15 6.68726e-31 0 2.13496 5.74681e-16 0 0 0 0)
(0 0 0 2.12864 3.55685e-16 0 0 0 0)
(0 0 0 2.12234 4.39762e-16 0 0 0 0)
(-1.4844e-15 1.31841e-30 0 2.11603 2.3169e-16 0 0 0 0)
(0 0 0 2.10974 1.47221e-16 0 0 0 0)
(0 0 0 2.10346 1.46811e-16 0 0 0 0)
(-1.46356e-15 6.49949e-31 0 2.09719 -4.20288e-17 0 0 0 0)
(0 0 0 2.09092 1.58587e-17 0 0 0 0)
(-1.45102e-15 6.44382e-31 0 2.08468 1.09346e-16 0 0 0 0)
(0 0 0 2.07843 -4.06645e-17 0 0 0 0)
(0 0 0 2.0722 -6.62216e-17 0 0 0 0)
(0 0 0 2.06597 1.67913e-17 0 0 0 0)
(0 0 0 2.05975 5.41951e-17 0 0 0 0)
(0 0 0 2.05354 -8.61439e-17 0 0 0 0)
(1.41025e-15 -6.26278e-31 0 2.04734 -7.34241e-17 0 0 0 0)
(0 0 0 2.04115 2.13706e-16 0 0 0 0)
(0 0 0 2.03497 2.39728e-16 0 0 0 0)
(0 0 0 2.0288 1.84993e-16 0 0 0 0)
(0 0 0 2.02263 7.84742e-17 0 0 0 0)
(0 0 0 2.01648 -8.2873e-17 0 0 0 0)
(0 0 0 2.01033 3.45073e-17 0 0 0 0)
(0 0 0 2.00419 2.58504e-16 0 0 0 0)
(0 0 0 1.99806 3.4149e-16 0 0 0 0)
(0 0 0 1.99194 3.451e-16 0 0 0 0)
(0 0 0 1.98583 4.86882e-16 0 0 0 0)
(0 0 0 1.97972 1.49223e-16 0 0 0 0)
(0 0 0 1.97363 -3.29543e-16 0 0 0 0)
(0 0 0 1.96754 1.78822e-16 0 0 0 0)