/*--------------------------------*- C++ -*----------------------------------*\
| =========                 |                                                 |
| \\      /  F ield         | OpenFOAM: The Open Source CFD Toolbox           |
|  \\    /   O peration     | Version:  v1806                                 |
|   \\  /    A nd           | Web:      www.OpenFOAM.com                      |
|    \\/     M anipulation  |                                                 |
\*---------------------------------------------------------------------------*/
FoamFile
{
    version     2.0;
    format      ascii;
    class       volScalarField;
    location    "10000";
    object      k;
}
// * * * * * * * * * * * * * * * * * * * * * * * * * * * * * * * * * * * * * //

dimensions      [0 2 -2 0 0 0 0];


internalField   nonuniform List<scalar> 
1025
(
4.67601e-05
0.000685484
0.00202873
0.00375405
0.00531882
0.00651058
0.00739715
0.00807967
0.00862925
0.00908943
0.00948669
0.00983769
0.0101534
0.0104413
0.0107068
0.0109539
0.0111855
0.0114039
0.011611
0.0118082
0.0119967
0.0121776
0.0123517
0.0125196
0.0126819
0.0128393
0.012992
0.0131406
0.0132854
0.0134266
0.0135646
0.0136995
0.0138317
0.0139612
0.0140884
0.0142133
0.014336
0.0144568
0.0145757
0.0146929
0.0148084
0.0149224
0.015035
0.0151461
0.015256
0.0153647
0.0154722
0.0155786
0.0156839
0.0157883
0.0158918
0.0159944
0.0160961
0.0161971
0.0162973
0.0163968
0.0164957
0.0165939
0.0166915
0.0167885
0.016885
0.0169809
0.0170764
0.0171714
0.017266
0.0173601
0.0174539
0.0175473
0.0176404
0.0177331
0.0178255
0.0179176
0.0180095
0.0181011
0.0181924
0.0182836
0.0183745
0.0184652
0.0185558
0.0186462
0.0187364
0.0188265
0.0189164
0.0190063
0.019096
0.0191856
0.0192752
0.0193647
0.0194541
0.0195435
0.0196328
0.0197221
0.0198113
0.0199006
0.0199898
0.0200791
0.0201683
0.0202576
0.0203468
0.0204362
0.0205255
0.0206149
0.0207043
0.0207938
0.0208834
0.020973
0.0210627
0.0211525
0.0212424
0.0213323
0.0214224
0.0215126
0.0216029
0.0216933
0.0217838
0.0218744
0.0219652
0.0220561
0.0221471
0.0222383
0.0223296
0.0224211
0.0225127
0.0226045
0.0226965
0.0227886
0.0228809
0.0229734
0.023066
0.0231589
0.0232519
0.0233451
0.0234385
0.0235321
0.0236259
0.0237199
0.0238141
0.0239085
0.0240031
0.0240979
0.024193
0.0242883
0.0243838
0.0244795
0.0245754
0.0246716
0.024768
0.0248647
0.0249616
0.0250587
0.025156
0.0252537
0.0253515
0.0254496
0.025548
0.0256466
0.0257455
0.0258446
0.025944
0.0260436
0.0261435
0.0262437
0.0263442
0.0264449
0.0265458
0.0266471
0.0267486
0.0268504
0.0269525
0.0270548
0.0271574
0.0272604
0.0273637
0.0274671
0.0275709
0.027675
0.0277793
0.0278839
0.0279889
0.0280941
0.0281996
0.0283054
0.0284115
0.028518
0.0286247
0.0287317
0.028839
0.0289466
0.0290545
0.0291627
0.0292712
0.0293801
0.0294892
0.0295986
0.0297084
0.0298185
0.0299288
0.0300395
0.0301505
0.0302618
0.0303734
0.0304853
0.0305975
0.0307101
0.030823
0.0309362
0.0310497
0.0311635
0.0312777
0.0313922
0.031507
0.0316221
0.0317375
0.0318532
0.0319693
0.0320857
0.0322024
0.0323194
0.0324368
0.0325545
0.0326725
0.0327908
0.0329094
0.0330284
0.0331477
0.0332674
0.0333873
0.0335076
0.0336282
0.0337492
0.0338704
0.033992
0.0341139
0.0342362
0.0343588
0.0344816
0.0346048
0.0347283
0.0348522
0.0349764
0.035101
0.0352258
0.035351
0.0354765
0.0356023
0.0357285
0.035855
0.0359818
0.0361089
0.0362364
0.0363642
0.0364923
0.0366207
0.0367495
0.0368786
0.0370081
0.0371378
0.0372679
0.0373983
0.037529
0.03766
0.0377914
0.0379231
0.0380551
0.0381875
0.0383201
0.0384531
0.0385864
0.03872
0.038854
0.0389882
0.0391228
0.0392578
0.039393
0.0395285
0.0396643
0.0398005
0.039937
0.0400739
0.040211
0.0403485
0.0404862
0.0406244
0.0407628
0.0409014
0.0410405
0.0411798
0.0413194
0.0414594
0.0415997
0.0417403
0.0418812
0.0420224
0.0421639
0.0423057
0.0424478
0.0425903
0.042733
0.042876
0.0430194
0.0431631
0.043307
0.0434513
0.0435958
0.0437407
0.0438858
0.0440313
0.044177
0.0443231
0.0444694
0.044616
0.044763
0.0449102
0.0450577
0.0452055
0.0453537
0.045502
0.0456507
0.0457997
0.045949
0.0460985
0.0462483
0.0463984
0.0465488
0.0466995
0.0468504
0.0470017
0.0471532
0.047305
0.0474571
0.0476094
0.047762
0.0479149
0.0480681
0.0482215
0.0483752
0.0485292
0.0486834
0.0488379
0.0489927
0.0491477
0.049303
0.0494586
0.0496144
0.0497705
0.0499268
0.0500834
0.0502402
0.0503973
0.0505547
0.0507123
0.0508702
0.0510283
0.0511866
0.0513452
0.051504
0.0516631
0.0518225
0.051982
0.0521418
0.0523019
0.0524621
0.0526226
0.0527834
0.0529443
0.0531056
0.053267
0.0534286
0.0535905
0.0537526
0.0539149
0.0540775
0.0542403
0.0544033
0.0545665
0.0547299
0.0548935
0.0550573
0.0552214
0.0553856
0.05555
0.0557147
0.0558796
0.0560446
0.0562099
0.0563753
0.056541
0.0567069
0.0568729
0.0570391
0.0572055
0.0573721
0.0575389
0.0577058
0.057873
0.0580403
0.0582078
0.0583755
0.0585433
0.0587113
0.0588795
0.0590478
0.0592164
0.059385
0.0595539
0.0597228
0.059892
0.0600612
0.0602307
0.0604003
0.06057
0.0607399
0.0609099
0.0610801
0.0612504
0.0614209
0.0615914
0.0617621
0.061933
0.0621039
0.062275
0.0624462
0.0626176
0.062789
0.0629606
0.0631322
0.063304
0.0634759
0.0636479
0.06382
0.0639922
0.0641645
0.0643368
0.0645093
0.0646819
0.0648546
0.0650273
0.0652001
0.065373
0.065546
0.0657191
0.0658922
0.0660654
0.0662386
0.066412
0.0665853
0.0667588
0.0669323
0.0671058
0.0672794
0.067453
0.0676267
0.0678004
0.0679742
0.068148
0.0683218
0.0684956
0.0686695
0.0688434
0.0690174
0.0691913
0.0693652
0.0695392
0.0697132
0.0698871
0.0700611
0.0702351
0.070409
0.0705829
0.0707569
0.0709308
0.0711047
0.0712786
0.0714524
0.0716263
0.0718001
0.0719738
0.0721475
0.0723212
0.0724948
0.0726684
0.0728419
0.0730154
0.0731888
0.0733621
0.0735354
0.0737086
0.0738817
0.0740548
0.0742277
0.0744006
0.0745734
0.0747461
0.0749187
0.0750912
0.0752636
0.0754359
0.0756081
0.0757801
0.0759521
0.0761239
0.0762956
0.0764671
0.0766385
0.0768098
0.0769809
0.0771519
0.0773228
0.0774935
0.077664
0.0778344
0.0780046
0.0781746
0.0783444
0.0785141
0.0786836
0.078853
0.0790221
0.079191
0.0793597
0.0795282
0.0796965
0.0798646
0.0800325
0.0802001
0.0803675
0.0805347
0.0807016
0.0808683
0.0810348
0.0812009
0.0813669
0.0815325
0.0816979
0.0818631
0.0820279
0.0821925
0.0823568
0.0825208
0.0826845
0.0828479
0.083011
0.0831738
0.0833362
0.0834984
0.0836602
0.0838217
0.0839829
0.0841437
0.0843042
0.0844644
0.0846241
0.0847835
0.0849426
0.0851013
0.0852597
0.0854175
0.085575
0.0857322
0.0858891
0.0860454
0.0862013
0.0863569
0.0865121
0.0866669
0.0868212
0.086975
0.0871284
0.0872815
0.087434
0.087586
0.0877376
0.0878889
0.0880396
0.0881898
0.0883395
0.0884887
0.0886375
0.0887858
0.0889336
0.0890808
0.0892275
0.0893738
0.0895195
0.0896646
0.0898092
0.0899533
0.0900969
0.09024
0.0903825
0.0905242
0.0906656
0.0908064
0.0909465
0.0910861
0.0912251
0.0913634
0.0915012
0.0916383
0.0917748
0.0919107
0.092046
0.0921807
0.0923147
0.092448
0.0925808
0.0927129
0.0928443
0.0929751
0.0931051
0.0932345
0.0933632
0.0934911
0.0936184
0.093745
0.0938708
0.093996
0.0941205
0.0942441
0.0943671
0.0944894
0.0946108
0.0947315
0.0948515
0.0949707
0.0950891
0.0952068
0.0953236
0.0954396
0.0955549
0.0956694
0.0957831
0.0958958
0.0960078
0.096119
0.0962294
0.0963389
0.0964476
0.0965554
0.0966623
0.0967684
0.0968736
0.0969779
0.0970813
0.0971838
0.0972855
0.0973862
0.0974861
0.0975851
0.097683
0.09778
0.0978762
0.0979714
0.0980656
0.0981589
0.0982512
0.0983426
0.0984329
0.0985224
0.0986107
0.0986981
0.0987845
0.09887
0.0989544
0.0990378
0.0991201
0.0992014
0.0992817
0.099361
0.0994392
0.0995163
0.0995924
0.0996674
0.0997413
0.0998142
0.0998859
0.0999566
0.100026
0.100095
0.100162
0.100228
0.100293
0.100357
0.10042
0.100482
0.100542
0.100602
0.10066
0.100717
0.100773
0.100828
0.100881
0.100934
0.100985
0.101035
0.101083
0.101131
0.101177
0.101222
0.101266
0.101309
0.10135
0.10139
0.101429
0.101466
0.101503
0.101538
0.101571
0.101604
0.101635
0.101665
0.101693
0.101721
0.101746
0.101771
0.101794
0.101816
0.101837
0.101856
0.101874
0.10189
0.101906
0.101919
0.101932
0.101943
0.101953
0.101961
0.101968
0.101973
0.101977
0.10198
0.101981
0.101981
0.10198
0.101976
0.101972
0.101966
0.101959
0.10195
0.10194
0.101928
0.101915
0.1019
0.101884
0.101867
0.101847
0.101827
0.101805
0.101781
0.101756
0.10173
0.101702
0.101672
0.101641
0.101608
0.101574
0.101538
0.101501
0.101462
0.101422
0.10138
0.101337
0.101292
0.101245
0.101197
0.101147
0.101096
0.101043
0.100989
0.100933
0.100875
0.100816
0.100755
0.100693
0.100629
0.100563
0.100496
0.100427
0.100357
0.100285
0.100212
0.100136
0.100059
0.099981
0.0999009
0.0998191
0.0997358
0.0996508
0.0995641
0.0994759
0.099386
0.0992944
0.0992013
0.0991064
0.0990099
0.0989118
0.098812
0.0987106
0.0986075
0.0985028
0.0983964
0.0982884
0.0981787
0.0980673
0.0979543
0.0978397
0.0977234
0.0976054
0.0974858
0.0973645
0.0972415
0.097117
0.0969907
0.0968628
0.0967332
0.096602
0.0964691
0.0963345
0.0961983
0.0960605
0.095921
0.0957799
0.0956371
0.0954926
0.0953466
0.0951989
0.0950496
0.0948986
0.0947459
0.0945917
0.0944358
0.0942783
0.0941191
0.0939584
0.093796
0.093632
0.0934665
0.0932993
0.0931305
0.0929601
0.0927882
0.0926146
0.0924395
0.0922627
0.0920844
0.0919046
0.0917232
0.0915402
0.0913557
0.0911696
0.0909821
0.090793
0.0906023
0.0904101
0.0902165
0.0900213
0.0898247
0.0896265
0.089427
0.0892259
0.0890234
0.0888194
0.088614
0.0884072
0.0881989
0.0879893
0.0877782
0.0875658
0.087352
0.0871368
0.0869203
0.0867025
0.0864833
0.0862628
0.086041
0.0858179
0.0855936
0.085368
0.0851411
0.084913
0.0846837
0.0844532
0.0842215
0.0839887
0.0837547
0.0835195
0.0832833
0.083046
0.0828076
0.0825681
0.0823275
0.0820859
0.0818434
0.0815999
0.0813553
0.0811099
0.0808635
0.0806163
0.0803681
0.0801191
0.0798693
0.0796186
0.0793672
0.0791151
0.0788622
0.0786085
0.0783543
0.0780993
0.0778437
0.0775876
0.0773308
0.0770735
0.0768157
0.0765575
0.0762987
0.0760395
0.07578
0.0755201
0.0752599
0.0749993
0.0747385
0.0744775
0.0742163
0.0739549
0.0736934
0.0734318
0.0731702
0.0729085
0.0726469
0.0723854
0.0721239
0.0718627
0.0716016
0.0713406
0.07108
0.0708198
0.0705598
0.0703002
0.0700411
0.0697825
0.0695244
0.0692669
0.0690101
0.0687539
0.0684984
0.0682436
0.0679897
0.0677366
0.0674845
0.0672333
0.0669831
0.066734
0.066486
0.0662392
0.0659936
0.0657493
0.0655063
0.0652646
0.0650244
0.0647857
0.0645486
0.064313
0.0640791
0.063847
0.0636166
0.063388
0.0631613
0.0629366
0.0627138
0.0624932
0.0622746
0.0620583
0.0618442
0.0616324
0.0614229
0.0612159
0.0610114
0.0608094
0.06061
0.0604134
0.0602195
0.0600283
0.05984
0.0596547
0.0594723
0.059293
0.0591168
0.0589438
0.0587741
0.0586076
0.0584446
0.058285
0.0581289
0.0579764
0.0578275
0.0576824
0.057541
0.0574035
0.0572699
0.0571402
0.0570147
0.0568932
0.056776
0.056663
0.0565543
0.0564501
0.0563503
0.056255
0.0561644
0.0560785
0.0559974
0.055921
0.0558496
0.0557832
0.0557219
0.0556657
0.0556148
0.0555692
0.0555289
0.0554941
0.0554649
0.0554414
0.0554235
0.0554115
0.0554053
)
;

boundaryField
{
    INLET
    {
        type            cyclic;
    }
    OUTLET
    {
        type            cyclic;
    }
    CENTER
    {
        type            symmetryPlane;
    }
    WALL
    {
        type            fixedValue;
        value           uniform 1e-10;
    }
    frontAndBackPlanes
    {
        type            empty;
    }
}


// ************************************************************************* //
