/*--------------------------------*- C++ -*----------------------------------*\
| =========                 |                                                 |
| \\      /  F ield         | OpenFOAM: The Open Source CFD Toolbox           |
|  \\    /   O peration     | Version:  v1806                                 |
|   \\  /    A nd           | Web:      www.OpenFOAM.com                      |
|    \\/     M anipulation  |                                                 |
\*---------------------------------------------------------------------------*/
FoamFile
{
    version     2.0;
    format      ascii;
    class       volScalarField;
    location    0;
    object      Kj_DD_exp;
}
// * * * * * * * * * * * * * * * * * * * * * * * * * * * * * * * * * * * * * //

dimensions      [0 0 0 0 0 0 0];


internalField   nonuniform List<scalar>
1025
(
0.14291294
0.42922008
0.71668539
1.00531
1.295093
1.5860474
1.8781785
2.1714874
2.4659808
2.7616597
3.0585198
3.3565649
3.6558096
3.9562622
4.257928
4.5608092
4.864911
5.1702435
5.4768071
5.7846087
6.0936486
6.4039336
6.7155064
7.0283741
7.3425441
7.6580236
7.9748062
8.2929127
8.612298
8.932962
9.2549362
9.5781847
9.9027412
10.22864
10.5559
10.884462
11.214324
11.54552
11.878085
12.212049
12.547411
12.884136
13.222221
13.561665
13.902466
14.244739
14.5884
14.933411
15.279807
15.627714
15.977132
16.327928
16.680237
17.033955
17.389082
17.745795
18.103947
18.463501
18.82449
19.186949
19.550751
19.915892
20.282495
20.650555
21.020109
21.391151
21.763681
22.137695
22.513227
22.890275
23.268835
23.648749
24.030172
24.413172
24.797673
25.183709
25.571315
25.960486
26.351221
26.743516
27.137371
27.532816
27.929851
28.32867
28.729107
29.131127
29.534972
29.940426
30.34731
30.755836
31.165965
31.577731
31.991399
32.406973
32.824454
33.243879
33.664966
34.087711
34.512184
34.938347
35.366464
35.7963
36.227884
36.660902
37.095663
37.532167
37.970375
38.410387
38.852167
39.295674
39.74098
40.188043
40.636899
41.087574
41.540034
41.994312
42.450749
42.908998
43.369449
43.832105
44.2966
44.762967
45.2312
45.701302
46.173297
46.647187
47.122932
47.600563
48.080147
48.561643
49.045019
49.530335
50.017627
50.506852
50.998011
51.491131
51.986212
52.483283
52.982343
53.483383
53.985908
54.490445
54.997531
55.507138
56.019305
56.533508
57.050283
57.569121
58.090057
58.613612
59.139221
59.666953
60.196804
60.728767
61.262841
61.79902
62.336715
62.876167
63.417459
63.960583
64.505723
65.053404
65.603594
66.155921
66.710382
67.266934
67.82582
68.387001
68.950361
69.51595
70.083677
70.654411
71.227079
71.801338
72.377982
72.95734
73.538838
74.122634
74.708726
75.296611
75.886444
76.478218
77.072254
77.66863
78.267187
78.868339
79.472265
80.078729
80.687734
81.299137
81.912975
82.528968
83.147537
83.76848
84.392093
85.018171
85.64712
86.278112
86.911242
87.547674
88.186764
88.828077
89.471931
90.11854
90.767802
91.419828
92.074713
92.732364
93.392988
94.055986
94.721507
95.39024
96.060749
96.733843
97.409711
98.08847
98.769993
99.454926
100.14281
100.83339
101.52642
102.2225
102.92097
103.62313
104.32767
105.03532
105.74578
106.45918
107.17615
107.89622
108.61847
109.34336
110.07166
110.80226
111.53517
112.27083
113.00893
113.75092
114.49547
115.24243
115.99159
116.74312
117.49769
118.25617
119.01715
119.78081
120.54838
121.31916
122.09311
122.87066
123.65136
124.43502
125.22229
126.01329
126.80754
127.60411
128.40369
129.207
130.0128
130.82107
131.63328
132.44932
133.26811
134.09064
134.91534
135.74312
136.5738
137.40692
138.24285
139.08188
139.9233
140.76803
141.61632
142.46811
143.32419
144.18388
145.04787
145.91567
146.78733
147.66227
148.54102
149.42361
150.31059
151.20192
152.09568
152.99356
153.89414
154.79912
155.70764
156.61911
157.5338
158.4532
159.377
160.30431
161.23451
162.16788
163.10629
164.04944
164.99573
165.94644
166.89962
167.85557
168.81659
169.78
170.74816
171.72003
172.69596
173.6756
174.65924
175.64656
176.63757
177.63255
178.63149
179.63409
180.64065
181.65114
182.66526
183.684
184.70704
185.73399
186.76445
187.79879
188.83731
189.87971
190.92597
191.97639
193.03095
194.08935
195.15187
196.21881
197.28956
198.36441
199.44364
200.52666
201.61375
202.7052
203.80099
204.90083
206.005
207.11348
208.22647
209.34376
210.46535
211.59121
212.72186
213.8573
214.99728
216.1415
217.28997
218.44349
219.60207
220.76515
221.93243
223.10363
224.27931
225.46001
226.64546
227.83535
229.02966
230.2284
231.43184
232.63996
233.85248
235.06965
236.29086
237.51671
238.74719
239.98229
241.22228
242.46687
243.71537
244.96807
246.22493
247.48594
248.75148
250.02182
251.29695
252.57756
253.86323
255.15365
256.44882
257.74975
259.05567
260.3666
261.68299
263.00435
264.33095
265.66251
266.999
268.34042
269.68675
271.03744
272.3933
273.75432
275.12131
276.49427
277.8732
279.25725
280.64552
282.03827
283.43637
284.83951
286.24797
287.66082
289.07895
290.50235
291.93006
293.36207
294.79957
296.24255
297.69072
299.14435
300.60341
302.0679
303.53807
305.01363
306.49458
307.97985
309.47073
310.96723
312.46931
313.97806
315.49346
317.0158
318.54341
320.07682
321.61602
323.16071
324.71143
326.26789
327.8298
329.39623
330.96862
332.54694
334.12996
335.71861
337.31315
338.91355
340.51981
342.13218
343.75036
345.37592
347.00728
348.64467
350.28835
351.93778
353.5932
355.25486
356.92247
358.59487
360.27345
361.9582
363.64763
365.34318
367.0451
368.7531
370.46716
372.18754
373.91446
375.64766
377.38711
379.1328
380.88471
382.64494
384.41325
386.18773
387.96863
389.75592
391.54816
393.34701
395.15219
396.96394
398.78075
400.60231
402.42858
404.26132
406.10076
407.94688
409.79966
411.65908
413.52512
415.39801
417.27748
419.16376
421.05708
422.95717
424.86375
426.7753
428.69176
430.61515
432.54336
434.47818
436.42009
438.36908
440.32485
442.28982
444.2618
446.24076
448.22669
450.21981
452.22009
454.22728
456.24183
458.26348
460.2922
462.32823
464.37392
466.42687
468.48681
470.55421
472.62904
474.71104
476.80042
478.89715
480.99865
483.1077
485.22688
487.35331
489.48455
491.62348
493.77255
495.93175
498.09882
500.27348
502.45549
504.64528
506.84284
509.04789
511.26066
513.48134
515.70968
517.94565
520.18945
522.44108
524.7038
526.97429
529.25252
531.53576
533.82372
536.11955
538.4232
540.7349
543.05793
545.38894
547.72478
550.06855
552.42022
554.78021
557.14827
559.5279
561.91601
564.30781
566.70463
569.1064
571.51671
573.93553
576.36051
578.79393
581.23809
583.69063
586.1492
588.6161
591.09357
593.57931
596.07325
598.57538
601.08747
603.60997
606.14287
608.68155
611.22825
613.78094
616.34386
618.91905
621.50654
624.10191
626.7051
629.31839
631.9417
634.57736
637.22539
639.88337
642.55128
645.2316
647.91952
650.61241
653.31508
656.02748
658.74956
661.47904
664.21591
666.96456
669.72275
672.48819
675.26307
678.04735
680.84098
683.63853
686.43769
689.24604
692.06572
694.8945
697.73233
700.57919
703.44075
706.31345
709.19506
712.08553
714.98485
717.89893
720.82395
723.7638
726.71233
729.6717
732.63969
735.61625
738.60563
741.59705
744.59038
747.5942
750.60844
753.63092
756.66159
759.70465
762.75794
765.81927
768.89074
771.97228
775.06174
778.16117
781.27262
784.39392
787.52297
790.66176
793.81238
796.98018
800.15762
803.34465
806.54122
809.74936
812.96694
816.20181
819.44605
822.69958
825.96444
829.24056
832.52582
835.81806
839.12557
842.43661
845.75946
849.09494
852.44039
855.79838
859.16683
862.54418
865.93303
869.32879
872.73043
876.14416
879.57197
883.01679
886.47092
889.93813
893.41257
896.89904
900.39452
903.89699
907.41131
910.93947
914.48241
918.03096
921.59223
925.16191
928.74199
932.3283
935.93126
939.54655
943.17107
946.80696
950.44946
954.10152
957.75993
961.42606
965.10288
968.79381
972.49764
976.20962
979.93441
983.67626
987.43083
991.19321
994.96207
998.73975
1002.5343
1006.3357
1010.143
1013.9665
1017.7964
1021.6417
1025.4926
1029.3489
1033.2183
1037.092
1040.9763
1044.8729
1048.7803
1052.6998
1056.6357
1060.5836
1064.5464
1068.521
1072.5003
1076.4869
1080.4855
1084.4901
1088.5107
1092.5457
1096.5967
1100.6655
1104.7427
1108.8376
1112.9357
1117.0449
1121.1605
1125.2889
1129.4312
1133.5778
1137.732
1141.89
1146.0517
1150.2254
1154.4198
1158.6244
1162.8408
1167.0707
1171.3159
1175.5673
1179.8193
1184.09
1188.3683
1192.6485
1196.947
1201.264
1205.5843
1209.9192
1214.2569
1218.611
1222.9672
1227.3376
1231.7085
1236.097
1240.4909
1244.8966
1249.314
1253.7363
1258.17
1262.6109
1267.06
1271.5261
1275.9968
1280.4719
1284.9661
1289.4765
1293.988
1298.5072
1303.0406
1307.5745
1312.1219
1316.6669
1321.2235
1325.7915
1330.3605
1334.9278
1339.5134
1344.1164
1348.7343
1353.367
1358.0171
1362.6625
1367.3225
1371.9933
1376.6708
1381.3442
1386.0226
1390.723
1395.4454
1400.1724
1404.8995
1409.6362
1414.388
1419.1365
1423.8828
1428.6425
1433.4081
1438.1808
1442.9621
1447.7531
1452.5523
1457.3625
1462.1819
1467.0091
1471.8453
1476.6903
1481.5455
1486.4124
1491.2862
1496.165
1501.0532
1505.9492
1510.8528
1515.7639
1520.6837
1525.6105
1530.5443
1535.4862
1540.4361
1545.3937
1550.3575
1555.3287
1560.3071
1565.2911
1570.2833
1575.2835
1580.2888
1585.2966
1590.3118
1595.3342
1600.3597
1605.3907
1610.4268
1615.4706
1620.5205
1625.5789
1630.6482
1635.723
1640.8031
1645.8882
1650.9783
1656.0714
1661.1649
1666.2583
1671.3582
1676.4631
1681.5672
1686.6758
1691.7899
1696.908
1702.0254
1707.142
1712.2574
1717.3737
1722.494
1727.6214
1732.7522
1737.8816
1743.0139
1748.1489
1753.2863
1758.4259
1763.5686
1768.7141
1773.861
1779.0102
1784.1614
1789.3143
1794.4686
1799.6241
1804.7805
1809.9375
1815.096
1820.2545
1825.4191
1830.5895
1835.7603
1840.9312
1846.106
1851.2857
1856.4657
1861.6456
1866.8296
1872.0118
1877.193
1882.3786
1887.5672
1892.755
1897.9346
1903.1047
1908.2728
1913.4387
1918.6018
1923.761
1928.9157
1934.0668
1939.2147
1944.3645
1949.5148
1954.661
1959.8026
1964.9384
1970.0625
1975.1809
1980.2988
1985.4103
1990.5159
1995.6144
2000.7051
2005.782
2010.8436
2015.8903
2020.9285
2025.9579
2030.978
2035.9883
2040.9822
2045.9655
2050.9378
2055.9067
2060.8645
2065.8108
2070.7451
2075.6669
2080.5842
2085.4967
2090.3953
2095.2795
2100.1507
2105.0073
2109.8482
2114.6743
2119.4845
2124.2781
2129.0562
2133.8176
2138.5691
2143.3027
2148.0103
2152.6989
2157.3679
2162.0175
2166.6472
2171.2556
2175.8429
2180.4091
2184.9441
2189.4569
2193.9467
2198.4033
2202.8357
2207.2432
2211.6252
2215.9811
2220.3015
2224.5949
2228.8602
2233.0972
2237.3053
2241.4843
2245.6335
2249.7413
2253.8178
2257.863
2261.8747
2265.853
2269.7976
2273.707
2277.5909
2281.4495
2285.2816
2289.0861
2292.8526
2296.58
2300.278
2303.936
2307.5421
2311.106
2314.6268
2318.1037
2321.536
2324.9226
2328.2627
2331.5561
2334.8011
2337.9968
2341.1541
2344.2605
2347.303
2350.281
2353.2053
2356.0747
2358.8878
2361.6439
2364.3418
2366.9924
2369.5829
2372.1118
2374.5778
2376.9802
2379.3054
2381.5643
2383.7557
2385.8785
2387.9439
2389.9382
2391.8598
2393.7075
2395.48
2397.1758
2398.7805
2400.3055
2401.7493
2403.1106
2404.3878
2405.5792
2406.6832
2407.6984
2408.623
2409.4552
2410.1935
2410.836
2411.3668
2411.7842
2412.1002
2412.3128
2412.4201
)
;

boundaryField
{
INLET
{
    type            cyclic;
}
OUTLET
{
    type            cyclic;
}
WALL
{
    type            fixedValue;
    value           uniform 0;
}
CENTER
{
    type            symmetryPlane;
}
frontAndBackPlanes
{
    type            empty;
}
}


// ************************************************************************* //

