/*--------------------------------*- C++ -*----------------------------------*\
| =========                 |                                                 |
| \\      /  F ield         | OpenFOAM: The Open Source CFD Toolbox           |
|  \\    /   O peration     | Version:  v1806                                 |
|   \\  /    A nd           | Web:      www.OpenFOAM.com                      |
|    \\/     M anipulation  |                                                 |
\*---------------------------------------------------------------------------*/
FoamFile
{
    version     2.0;
    format      ascii;
    class       volScalarField;
    location    0;
    object      Kj_exp;
}
// * * * * * * * * * * * * * * * * * * * * * * * * * * * * * * * * * * * * * //

dimensions      [0 0 0 0 0 0 0];


internalField   nonuniform List<scalar>
1025
(
27488.207
82557.186
137848.93
193363.66
249101.19
305064.03
361253.21
417668.92
474312.47
531184.03
588282.79
645609.47
703166.88
760956.64
818979.74
877236.62
935728.27
994456.62
1053421.8
1112625
1172066.5
1231747.4
1291676.1
1351853.8
1412282
1472962
1533892.7
1595078
1656509.4
1718186.6
1780115.9
1842290.2
1904716.2
1967400.4
2030346.4
2093542.7
2156989.2
2220692.1
2284658.4
2348893.8
2413398.2
2478164.5
2543192.7
2608482.1
2674032.5
2739866.1
2805966.6
2872326.9
2938953.6
3005870.8
3073078.6
3140551.5
3208315.4
3276350.3
3344656.3
3413267.4
3482155.2
3551312.5
3620746.1
3690462.2
3760436.8
3830668.8
3901182.1
3971975.7
4043056.4
4114423.7
4186076.9
4258015.6
4330246.2
4402768.6
4475581.7
4548655.3
4622019
4695686.1
4769641.9
4843893
4918446
4993300.1
5068455
5143909.8
5219664.9
5295725.6
5372092.3
5448802
5525823.1
5603148.6
5680824.9
5758811
5837071.9
5915648.9
5994533.9
6073734
6153299.9
6233232.3
6313531.5
6394204.8
6475197.7
6556509.4
6638153.5
6720122.6
6802467.6
6885143.2
6968155.3
7051442.9
7135065.9
7219024
7303310
7387942.8
7472915.8
7558221.1
7643872.3
7729861.4
7816195.3
7902879.2
7989906.4
8077283.3
8165075.5
8253216.1
8341780.4
8430768.6
8520110.7
8609812.8
8699873.9
8790294.3
8881078.9
8972228
9063734
9155602.6
9247846.9
9340459.1
9433432.7
9526779.5
9620506.4
9714605.1
9809075.7
9903923.5
9999148.6
10094756
10190747
10287118
10383775
10480818
10578353
10676372
10774883
10873786
10973184
11072978
11173176
11273878
11374975
11476480
11578393
11680712
11783437
11886567
11989988
12093748
12197861
12302327
12407180
12512523
12618347
12724583
12831230
12938278
13045776
13153714
13262072
13370859
13480057
13589833
13699981
13810436
13921349
14032784
14144631
14256919
14369650
14482725
14596175
14709998
14824256
14938964
15054092
15169719
15285880
15402528
15519666
15637264
15755331
15873813
15992790
16112224
16232171
16352592
16473566
16594932
16716710
16839123
16962047
17085398
17209239
17333609
17458489
17583902
17709864
17836358
17963424
18090946
18218954
18347580
18476547
18606012
18736010
18866564
18997649
19129391
19261701
19394528
19527828
19661713
19796058
19931113
20066625
20202738
20339389
20476606
20614508
20753009
20891929
21031355
21171438
21311965
21452932
21594433
21736400
21879115
22022325
22165996
22310091
22454642
22599779
22745665
22892034
23038919
23186554
23334809
23483672
23633228
23783390
23934121
24085546
24237688
24390456
24543670
24697463
24851974
25006963
25162427
25318650
25475610
25633097
25791304
25949930
26109146
26268921
26429166
26589950
26751332
26913171
27075649
27238812
27402646
27567306
27732661
27898844
28065759
28233416
28401704
28570724
28740484
28911086
29082527
29254436
29427135
29600356
29774422
29949169
30124482
30300417
30477255
30654941
30833303
31012219
31191747
31372242
31553650
31735662
31918522
32101860
32285730
32470575
32655879
32842096
33029029
33216742
33405167
33594362
33784267
33974879
34166256
34358395
34551238
34744841
34939201
35134260
35330206
35526980
35724507
35922706
36121655
36321407
36521904
36723145
36925184
37128020
37331595
37535964
37741181
37947131
38153870
38361453
38569763
38778856
38988788
39199555
39411101
39623478
39836687
40050762
40265665
40481393
40697945
40915416
41133808
41353074
41573158
41794056
42015928
42238771
42462480
42686998
42912270
43138402
43365501
43593513
43822378
44052097
44282665
44514137
44746510
44979727
45213842
45448732
45684514
45921188
46158749
46397252
46636639
46876780
47117727
47359475
47602020
47845437
48089776
48335037
48581354
48828642
49076845
49325961
49576184
49827369
50079516
50332713
50586866
50842028
51098143
51355206
51613218
51872174
52131970
52392760
52654540
52917470
53181549
53446776
53712987
53980010
54247895
54516808
54786692
55057599
55329349
55602115
55875895
56150505
56425940
56702432
56979979
57258524
57538117
57818756
58100439
58383216
58667029
58951878
59237558
59524318
59812158
60101072
60391268
60682744
60975554
61269378
61564318
61860370
62157481
62455750
62755123
63055544
63356835
63659271
63962849
64267331
64572896
64879593
65187419
65496370
65806496
66117741
66430405
66744184
67059124
67375274
67692529
68010936
68330543
68651295
68972969
69295831
69619878
69944828
70270954
70598305
70926825
71256513
71587414
71919575
72252942
72587513
72923282
73260248
73598816
73938936
74280243
74622785
74966557
75311280
75657276
76004489
76352965
76702414
77052777
77404046
77756559
78110362
78465449
78821817
79179462
79538380
79898616
80260117
80622929
80987095
81352562
81719278
82086950
82455568
82825515
83196392
83568540
83942052
84316924
84693103
85071049
85450344
85830982
86212960
86596321
86981060
87367127
87754611
88143460
88533669
88925283
89318756
89713626
90109839
90507487
90906565
91307021
91708897
92112188
92516395
92922054
93329662
93738665
94148593
94560000
94973356
95388662
95805481
96223762
96643453
97064643
97487327
97911452
98337060
98764191
99192796
99622867
1.0005445e+08
1.0048753e+08
1.0092275e+08
1.0135946e+08
1.0179766e+08
1.0223682e+08
1.0267689e+08
1.0311848e+08
1.0356157e+08
1.040062e+08
1.0445302e+08
1.0490137e+08
1.0535065e+08
1.0580146e+08
1.0625379e+08
1.0670771e+08
1.0716319e+08
1.0762089e+08
1.0808023e+08
1.0854027e+08
1.0900128e+08
1.0946324e+08
1.0992685e+08
1.1039209e+08
1.1085852e+08
1.1132657e+08
1.1179668e+08
1.1226841e+08
1.127413e+08
1.1321578e+08
1.1369231e+08
1.1417042e+08
1.1465011e+08
1.1513138e+08
1.1561456e+08
1.1609974e+08
1.1658693e+08
1.1707522e+08
1.1756506e+08
1.1805605e+08
1.1854901e+08
1.1904432e+08
1.1954201e+08
1.2004121e+08
1.2054191e+08
1.2104456e+08
1.2154913e+08
1.2205608e+08
1.2256541e+08
1.2307665e+08
1.235898e+08
1.2410534e+08
1.2462234e+08
1.251403e+08
1.2566014e+08
1.2618185e+08
1.2670542e+08
1.2723041e+08
1.2775683e+08
1.2828551e+08
1.2881603e+08
1.2934794e+08
1.2988166e+08
1.304172e+08
1.3095453e+08
1.3149262e+08
1.3203102e+08
1.3257118e+08
1.3311352e+08
1.3365762e+08
1.3420345e+08
1.3475103e+08
1.3530143e+08
1.3585397e+08
1.3640822e+08
1.3696418e+08
1.3752184e+08
1.3808234e+08
1.3864495e+08
1.3921041e+08
1.3977754e+08
1.4034675e+08
1.4091762e+08
1.4149013e+08
1.4206512e+08
1.426405e+08
1.4321624e+08
1.43794e+08
1.4437377e+08
1.4495512e+08
1.4553804e+08
1.4612335e+08
1.4671063e+08
1.4729945e+08
1.4789023e+08
1.4848294e+08
1.4907717e+08
1.4967332e+08
1.5027179e+08
1.5087215e+08
1.5147399e+08
1.5207772e+08
1.5268371e+08
1.5329302e+08
1.5390417e+08
1.5451717e+08
1.5513201e+08
1.5574907e+08
1.5636794e+08
1.5699015e+08
1.5761415e+08
1.5823995e+08
1.5886792e+08
1.5949805e+08
1.6012995e+08
1.6076318e+08
1.6139936e+08
1.6203621e+08
1.6267534e+08
1.6331689e+08
1.6396036e+08
1.6460624e+08
1.6525414e+08
1.6590375e+08
1.6655557e+08
1.6720872e+08
1.6786299e+08
1.685196e+08
1.6917891e+08
1.698415e+08
1.7050587e+08
1.7117276e+08
1.7184105e+08
1.7251164e+08
1.7318397e+08
1.7385764e+08
1.7453359e+08
1.7521221e+08
1.7589367e+08
1.765762e+08
1.7726119e+08
1.7794779e+08
1.7863639e+08
1.7932619e+08
1.8001919e+08
1.8071456e+08
1.8141171e+08
1.8211105e+08
1.8281165e+08
1.835141e+08
1.8421777e+08
1.8492292e+08
1.8563013e+08
1.8634005e+08
1.8705245e+08
1.8776642e+08
1.8848286e+08
1.8920257e+08
1.8992473e+08
1.906484e+08
1.9137331e+08
1.9209992e+08
1.9282977e+08
1.9356093e+08
1.9429325e+08
1.9502867e+08
1.9576533e+08
1.9650494e+08
1.9724562e+08
1.9798735e+08
1.987316e+08
1.9947669e+08
2.002238e+08
2.0097327e+08
2.0172483e+08
2.0247873e+08
2.0323576e+08
2.0399511e+08
2.0475732e+08
2.0552181e+08
2.0628719e+08
2.0705399e+08
2.0782309e+08
2.0859334e+08
2.0936666e+08
2.1014277e+08
2.1092195e+08
2.1170455e+08
2.1248877e+08
2.1327639e+08
2.1406463e+08
2.14855e+08
2.1564662e+08
2.1644067e+08
2.1723742e+08
2.1803499e+08
2.1883401e+08
2.1963377e+08
2.2043424e+08
2.2123703e+08
2.2204378e+08
2.2285249e+08
2.2366349e+08
2.2447708e+08
2.2529361e+08
2.2611134e+08
2.2692919e+08
2.2775061e+08
2.2857351e+08
2.2939677e+08
2.3022357e+08
2.3105391e+08
2.3188487e+08
2.3271866e+08
2.3355299e+08
2.3439046e+08
2.3522835e+08
2.3606897e+08
2.3690966e+08
2.3775376e+08
2.385989e+08
2.394463e+08
2.4029595e+08
2.4114654e+08
2.4199934e+08
2.4285352e+08
2.4370926e+08
2.4456829e+08
2.4542819e+08
2.4628894e+08
2.4715336e+08
2.480209e+08
2.4888865e+08
2.4975788e+08
2.5062985e+08
2.5150192e+08
2.5237657e+08
2.5325077e+08
2.5412719e+08
2.5500581e+08
2.5588462e+08
2.567631e+08
2.576451e+08
2.5853046e+08
2.5941868e+08
2.6030975e+08
2.6120415e+08
2.6209767e+08
2.6299398e+08
2.6389238e+08
2.6479205e+08
2.6569094e+08
2.665908e+08
2.6749489e+08
2.684032e+08
2.693124e+08
2.7022162e+08
2.711327e+08
2.7204667e+08
2.7296e+08
2.7387293e+08
2.7478841e+08
2.7570504e+08
2.7662304e+08
2.7754267e+08
2.7846419e+08
2.7938728e+08
2.8031247e+08
2.8123946e+08
2.8216794e+08
2.8309813e+08
2.8403003e+08
2.849639e+08
2.8590001e+08
2.8683745e+08
2.8777584e+08
2.8871605e+08
2.8965776e+08
2.9060093e+08
2.9154554e+08
2.9249182e+08
2.9343946e+08
2.9438844e+08
2.9533898e+08
2.9629104e+08
2.9724461e+08
2.9819936e+08
2.9915553e+08
3.0011309e+08
3.0107173e+08
3.0203194e+08
3.0299369e+08
3.0395641e+08
3.0491963e+08
3.0588426e+08
3.0685027e+08
3.078169e+08
3.0878456e+08
3.0975323e+08
3.1072336e+08
3.1169467e+08
3.1266761e+08
3.1364265e+08
3.1461875e+08
3.1559586e+08
3.1657396e+08
3.1755298e+08
3.1853261e+08
3.195123e+08
3.2049199e+08
3.2147292e+08
3.224548e+08
3.2343654e+08
3.2441913e+08
3.2540279e+08
3.2638721e+08
3.2737152e+08
3.2835565e+08
3.2933955e+08
3.3032365e+08
3.313085e+08
3.322947e+08
3.3328157e+08
3.3426817e+08
3.3525533e+08
3.3624301e+08
3.3723116e+08
3.3821972e+08
3.3920888e+08
3.4019858e+08
3.4118854e+08
3.4217895e+08
3.4316973e+08
3.4416085e+08
3.4515225e+08
3.4614387e+08
3.4713567e+08
3.4812758e+08
3.4911976e+08
3.5011196e+08
3.5110533e+08
3.5209984e+08
3.530944e+08
3.5408897e+08
3.5508431e+08
3.5608059e+08
3.5707691e+08
3.5807323e+08
3.5907033e+08
3.6006709e+08
3.6106366e+08
3.6206106e+08
3.6305906e+08
3.6405688e+08
3.6505315e+08
3.6604757e+08
3.6704162e+08
3.6803523e+08
3.6902833e+08
3.7002065e+08
3.7101212e+08
3.7200289e+08
3.7299306e+08
3.7398358e+08
3.749742e+08
3.7596402e+08
3.7695298e+08
3.7794081e+08
3.7892638e+08
3.7991087e+08
3.8089526e+08
3.8187842e+08
3.8286045e+08
3.8384109e+08
3.8482026e+08
3.8579676e+08
3.8677032e+08
3.8774101e+08
3.8871007e+08
3.8967743e+08
3.9064301e+08
3.9160671e+08
3.9256725e+08
3.9352575e+08
3.9448212e+08
3.9543785e+08
3.9639145e+08
3.9734283e+08
3.9829191e+08
3.9923859e+08
4.001844e+08
4.0112926e+08
4.0207147e+08
4.0301092e+08
4.0394785e+08
4.0488199e+08
4.0581309e+08
4.0674136e+08
4.0766656e+08
4.0858858e+08
4.0950761e+08
4.1042342e+08
4.1133733e+08
4.122478e+08
4.1315327e+08
4.1405509e+08
4.1495314e+08
4.1584747e+08
4.1673795e+08
4.1762434e+08
4.1850666e+08
4.1938494e+08
4.2025722e+08
4.2112522e+08
4.219888e+08
4.2284599e+08
4.2369853e+08
4.2454628e+08
4.2538913e+08
4.2622694e+08
4.2705793e+08
4.2788374e+08
4.2870414e+08
4.2951909e+08
4.3032848e+08
4.3113228e+08
4.3193035e+08
4.3272046e+08
4.3350455e+08
4.342826e+08
4.3505423e+08
4.3581942e+08
4.3657812e+08
4.3733008e+08
4.3807711e+08
4.3881929e+08
4.3955637e+08
4.4028812e+08
4.4101259e+08
4.4172953e+08
4.424408e+08
4.431444e+08
4.43838e+08
4.4452349e+08
4.4520069e+08
4.4586943e+08
4.4652962e+08
4.47181e+08
4.4782345e+08
4.484569e+08
4.4908105e+08
4.4969572e+08
4.50303e+08
4.5090049e+08
4.5148571e+08
4.520585e+08
4.5262095e+08
4.5317286e+08
4.5371395e+08
4.5424406e+08
4.5476298e+08
4.552728e+08
4.5577107e+08
4.5625748e+08
4.567318e+08
4.5719387e+08
4.5764111e+08
4.5807561e+08
4.584971e+08
4.5890539e+08
4.5930267e+08
4.5968625e+08
4.6005587e+08
4.6041125e+08
4.6075217e+08
4.6107835e+08
4.6138699e+08
4.6168032e+08
4.6195803e+08
4.6221987e+08
4.6246553e+08
4.6269467e+08
4.6290703e+08
4.6310229e+08
4.6328013e+08
4.6344021e+08
4.635822e+08
4.6370578e+08
4.6380789e+08
4.6388817e+08
4.6394894e+08
4.6398983e+08
4.6401047e+08
)
;

boundaryField
{
INLET
{
    type            cyclic;
}
OUTLET
{
    type            cyclic;
}
WALL
{
    type            fixedValue;
    value           uniform 0;
}
CENTER
{
    type            symmetryPlane;
}
frontAndBackPlanes
{
    type            empty;
}
}


// ************************************************************************* //

