/*--------------------------------*- C++ -*----------------------------------*\
| =========                 |                                                 |
| \\      /  F ield         | OpenFOAM: The Open Source CFD Toolbox           |
|  \\    /   O peration     | Version:  v1806                                 |
|   \\  /    A nd           | Web:      www.OpenFOAM.com                      |
|    \\/     M anipulation  |                                                 |
\*---------------------------------------------------------------------------*/
FoamFile
{
    version     2.0;
    format      ascii;
    class       volScalarField;
    location    0;
    object      Kj_Full_imp1;
}
// * * * * * * * * * * * * * * * * * * * * * * * * * * * * * * * * * * * * * //

dimensions      [0 0 0 0 0 0 0];


internalField   nonuniform List<scalar>
1025
(
0.13744876
0.41278899
0.68920271
0.96666351
1.2451115
1.5244963
1.804711
2.0856477
2.3671932
2.6491539
2.9314629
3.2138733
3.4961331
3.7781563
4.0596355
4.3403413
4.6201156
4.8986636
5.1757844
5.4512422
5.7247479
5.9961854
6.2652443
6.5317268
6.7956113
7.0565005
7.3142565
7.5689716
7.8201564
8.0677508
8.3119771
8.5522431
8.7885256
9.0212947
9.2499284
9.4741813
9.6948906
9.9114908
10.12336
10.331745
10.536229
10.73551
10.931175
11.123441
11.310715
11.494054
11.674265
11.849977
12.021415
12.189955
12.354644
12.514581
12.671742
12.825885
12.975217
13.121369
13.265226
13.405132
13.541308
13.675396
13.806469
13.933344
14.057935
14.180469
14.299232
14.415166
14.529536
14.641076
14.749242
14.855652
14.960221
15.061426
15.160414
15.258362
15.353814
15.446396
15.537796
15.627631
15.714474
15.799524
15.883685
15.965742
16.04543
16.124314
16.201908
16.276899
16.35056
16.42368
16.495034
16.564328
16.63293
16.700531
16.765974
16.830179
16.893816
16.956129
17.016786
17.076802
17.13608
17.193666
17.250034
17.305985
17.360845
17.414213
17.466964
17.519267
17.570399
17.620511
17.670328
17.719196
17.766709
17.81378
17.860531
17.906107
17.950751
17.99516
18.039
18.08163
18.123694
18.165574
18.206673
18.246917
18.286906
18.326639
18.365424
18.403676
18.441774
18.479275
18.515992
18.552573
18.588887
18.624447
18.65937
18.69418
18.728543
18.762193
18.795585
18.828685
18.861069
18.89299
18.924815
18.956185
18.986932
19.017432
19.047821
19.077743
19.107252
19.13668
19.165962
19.194693
19.223086
19.251403
19.279342
19.30682
19.334236
19.361441
19.388167
19.414594
19.440864
19.46682
19.492471
19.518067
19.543485
19.568504
19.59337
19.61829
19.642939
19.667327
19.691671
19.715864
19.739706
19.763342
19.786946
19.810284
19.833405
19.85651
19.879474
19.902147
19.92473
19.947268
19.969577
19.991809
20.014111
20.036274
20.058209
20.080194
20.10212
20.123716
20.145092
20.166449
20.187668
20.208616
20.229458
20.250137
20.270602
20.290982
20.311435
20.331828
20.352095
20.372257
20.392219
20.411939
20.43163
20.451275
20.470746
20.490139
20.509526
20.528789
20.547947
20.567092
20.586151
20.605076
20.624061
20.643098
20.662076
20.680989
20.699881
20.718674
20.737385
20.756078
20.774704
20.793211
20.811697
20.83014
20.848455
20.866746
20.885013
20.903168
20.921271
20.939362
20.957444
20.975444
20.993363
21.011139
21.028726
21.046296
21.063833
21.081271
21.098603
21.115915
21.133119
21.150284
21.16744
21.184433
21.201373
21.218381
21.235413
21.252384
21.269345
21.286162
21.302822
21.319476
21.336089
21.352621
21.369149
21.385651
21.402063
21.418457
21.434742
21.450941
21.467126
21.483299
21.499393
21.515461
21.53151
21.547483
21.563433
21.579372
21.59524
21.611085
21.626917
21.642677
21.6584
21.674114
21.689773
21.705399
21.72101
21.736566
21.752087
21.767512
21.782799
21.798051
21.813292
21.828478
21.843709
21.859011
21.874265
21.889495
21.904706
21.919858
21.934992
21.950107
21.965156
21.980113
21.994973
22.009768
22.024552
22.039399
22.054176
22.068949
22.083789
22.098642
22.113566
22.128478
22.143337
22.158183
22.173083
22.187928
22.202764
22.217569
22.232338
22.247013
22.261648
22.276335
22.291004
22.305623
22.32022
22.334809
22.349344
22.363785
22.378126
22.392414
22.406686
22.420928
22.435129
22.44932
22.463482
22.477619
22.491739
22.505811
22.519856
22.53389
22.547804
22.561692
22.575552
22.589384
22.6032
22.616974
22.630737
22.644485
22.658091
22.671687
22.685266
22.698799
22.712233
22.725644
22.739039
22.75241
22.765731
22.779036
22.792323
22.805578
22.818815
22.832019
22.845206
22.858375
22.871502
22.884611
22.897698
22.910839
22.924042
22.937291
22.950526
22.963662
22.97676
22.989835
23.002966
23.016163
23.029345
23.042487
23.055601
23.068694
23.081775
23.094835
23.107856
23.120855
23.13391
23.146948
23.159965
23.172944
23.185821
23.198594
23.211268
23.223841
23.236376
23.248884
23.261372
23.273925
23.286458
23.298879
23.311279
23.323647
23.335993
23.348323
23.360637
23.372923
23.385168
23.397313
23.40944
23.421552
23.433649
23.445791
23.457907
23.470002
23.48208
23.494054
23.506005
23.51802
23.530003
23.541965
23.5539
23.56582
23.577723
23.589684
23.601709
23.613791
23.625856
23.637901
23.649919
23.661912
23.673967
23.686007
23.69802
23.710013
23.721983
23.733933
23.745948
23.757944
23.769837
23.781619
23.793375
23.805104
23.816903
23.828675
23.840428
23.852163
23.863879
23.875568
23.887236
23.89889
23.910516
23.922123
23.933624
23.945103
23.956644
23.968242
23.979825
23.991393
24.002934
24.01445
24.025951
24.037521
24.049071
24.060595
24.072094
24.083572
24.095035
24.106477
24.117894
24.129285
24.140662
24.152022
24.163357
24.174672
24.185972
24.197251
24.208505
24.219734
24.230947
24.242232
24.25349
24.264728
24.275952
24.287155
24.298333
24.309486
24.320619
24.331736
24.342838
24.353921
24.364978
24.376015
24.387032
24.397938
24.40883
24.419706
24.430556
24.441387
24.452199
24.46299
24.473762
24.484594
24.495494
24.50638
24.517331
24.528263
24.539175
24.550062
24.560842
24.571608
24.582355
24.593168
24.604048
24.614996
24.625924
24.636832
24.647813
24.658774
24.66971
24.680627
24.691437
24.702228
24.713004
24.723755
24.734487
24.745204
24.755985
24.766834
24.777755
24.788662
24.799467
24.810159
24.820828
24.831478
24.842102
24.852713
24.863309
24.873885
24.884443
24.894981
24.905505
24.915925
24.926323
24.936695
24.947059
24.957403
24.967723
24.978024
24.988223
24.998318
25.008389
25.018446
25.028488
25.038417
25.048324
25.058216
25.068092
25.077951
25.087794
25.097614
25.107328
25.117024
25.126791
25.136545
25.146279
25.155997
25.165687
25.175268
25.184755
25.194222
25.203666
25.213002
25.222327
25.231636
25.240921
25.25019
25.259434
25.268577
25.27771
25.286813
25.295898
25.304971
25.314035
25.323078
25.332094
25.341096
25.350081
25.359049
25.368005
25.376936
25.385847
25.394749
25.403634
25.412499
25.421344
25.430263
25.439259
25.44824
25.457209
25.466158
25.475172
25.484177
25.493168
25.502133
25.510993
25.519839
25.528667
25.537482
25.546272
25.555135
25.563995
25.572836
25.581654
25.590366
25.598969
25.60756
25.616132
25.624686
25.633225
25.641842
25.650447
25.659037
25.667607
25.676158
25.684693
25.693215
25.701724
25.710213
25.718686
25.727146
25.735593
25.743927
25.752236
25.760441
25.768635
25.776902
25.785153
25.793392
25.801704
25.809998
25.818284
25.82656
25.834812
25.843137
25.85155
25.859948
25.868327
25.876693
25.885047
25.89339
25.901711
25.910017
25.918309
25.926582
25.934846
25.943198
25.95153
25.959842
25.968142
25.976427
25.984697
25.99295
26.001192
26.009426
26.01764
26.025837
26.034024
26.042205
26.05037
26.058507
26.066634
26.074757
26.082861
26.090948
26.099025
26.107092
26.115144
26.123184
26.131305
26.139412
26.147411
26.155391
26.163356
26.171313
26.179256
26.187188
26.195107
26.20311
26.211203
26.219282
26.227343
26.235397
26.24344
26.251469
26.259484
26.267486
26.275471
26.283337
26.291092
26.29874
26.306373
26.313993
26.321594
26.329181
26.336762
26.344334
26.351891
26.359432
26.366961
26.374477
26.381981
26.389477
26.39686
26.404225
26.411571
26.418907
26.426126
26.433228
26.440213
26.447077
26.453819
26.460547
26.467369
26.474287
26.481194
26.48809
26.494971
26.501949
26.50902
26.516074
26.52312
26.53016
26.537183
26.544195
26.551197
26.558185
26.565157
26.572115
26.579063
26.586113
26.593263
26.600402
26.607531
26.614645
26.621749
26.628732
26.635704
26.642662
26.649608
26.656544
26.663464
26.670485
26.677494
26.684493
26.691478
26.69845
26.705297
26.712129
26.719066
26.726112
26.733261
26.740397
26.747524
26.754522
26.761508
26.768488
26.775453
26.782402
26.789346
26.796278
26.803076
26.809742
26.8164
26.823047
26.829681
26.836428
26.843285
26.850252
26.857338
26.864415
26.871479
26.878534
26.885586
26.892627
26.899657
26.906804
26.914069
26.921453
26.928827
26.936187
26.943537
26.950885
26.958357
26.965818
26.973139
26.980446
26.987871
26.995421
27.00309
27.010751
27.018407
27.026049
27.033679
27.041172
27.04852
27.055854
27.063048
27.0701
27.077004
27.083761
27.090508
27.09724
27.103964
27.110679
27.117379
27.123932
27.130471
27.136858
27.143095
27.149183
27.155117
27.161038
27.166947
27.172986
27.179011
27.18488
27.190741
27.19659
27.20243
27.208242
27.21402
27.21995
27.225891
27.231669
27.237428
27.243171
27.248896
27.254604
27.260295
27.265968
27.271648
27.277336
27.282981
27.288608
27.294242
27.299834
27.305408
27.310988
27.31655
27.322118
27.327825
27.333646
27.339476
27.345154
27.350789
27.356382
27.361982
27.367587
27.373337
27.379068
27.384782
27.390479
27.396157
27.401651
27.40715
27.412654
27.418116
27.423728
27.429516
27.435458
27.441382
27.447117
27.452659
27.458009
27.463185
27.468341
27.473454
27.478568
27.483863
27.489295
27.494865
27.50062
27.506566
27.512678
27.518773
27.524852
27.530727
27.536559
27.542349
27.548145
27.553949
27.559733
27.5655
27.571249
27.576978
27.582886
27.588972
27.59504
27.601118
27.607406
27.613652
27.619856
27.626069
27.632293
27.638681
27.645027
27.651384
27.657753
27.66408
27.670391
27.676499
27.682564
27.688829
27.695323
27.702024
27.708711
27.715357
27.72199
27.728637
27.735499
27.742578
27.749617
27.756645
27.763693
27.770701
27.777699
27.784715
27.791692
27.798389
27.805102
27.812077
27.819013
27.825661
27.832269
27.838837
27.845419
27.852246
27.859033
27.865808
27.872575
27.87933
27.886046
27.892724
27.899362
27.905961
27.91282
27.919671
27.926513
27.933319
27.940086
27.946903
27.953823
27.960763
27.967641
27.974627
27.981606
27.988578
27.995518
28.002513
28.009354
28.016283
28.023178
28.030008
28.036652
28.043262
28.049931
28.056411
28.062824
28.069235
28.075708
28.082214
28.088623
28.094804
28.101018
28.107299
28.113583
28.119771
28.125826
28.131918
28.137844
28.143773
28.149464
28.155028
28.160416
28.165805
28.171173
28.176557
28.182054
28.187416
28.192724
28.198113
28.203594
28.208952
28.214221
28.219386
28.224649
28.229868
28.234835
28.239659
28.244233
28.248607
28.253022
28.257469
28.261859
28.266369
28.270554
28.274777
28.278735
28.282447
28.285884
28.289146
28.292361
28.295673
28.298736
28.301769
28.304625
28.307393
28.310102
28.312575
28.315157
28.317817
28.320512
28.32296
28.325029
28.326722
28.328065
28.329399
28.330494
28.331709
28.332776
28.333473
28.334089
28.334657
28.335172
28.335308
)
;

boundaryField
{
INLET
{
    type            cyclic;
}
OUTLET
{
    type            cyclic;
}
WALL
{
    type            fixedValue;
    value           uniform 0;
}
CENTER
{
    type            symmetryPlane;
}
frontAndBackPlanes
{
    type            empty;
}
}


// ************************************************************************* //

