/*--------------------------------*- C++ -*----------------------------------*\
| =========                 |                                                 |
| \\      /  F ield         | OpenFOAM: The Open Source CFD Toolbox           |
|  \\    /   O peration     | Version:  v1806                                 |
|   \\  /    A nd           | Web:      www.OpenFOAM.com                      |
|    \\/     M anipulation  |                                                 |
\*---------------------------------------------------------------------------*/
FoamFile
{
    version     2.0;
    format      ascii;
    class       volScalarField;
    location    0;
    object      Kj_imp;
}
// * * * * * * * * * * * * * * * * * * * * * * * * * * * * * * * * * * * * * //

dimensions      [0 0 0 0 0 0 0];


internalField   nonuniform List<scalar>
1025
(
26437.213
79396.792
132562.85
185930.3
239487.64
293225.16
347122.3
401158.32
455311.43
509544.41
563844.37
618163.84
672454.35
726699.35
780839.7
834831.3
888643.75
942220.31
995522.38
1048504.6
1101111.3
1153320.2
1205071.6
1256327.5
1307083.6
1357263.7
1406841.1
1455833.5
1504147
1551769.9
1598744.9
1644958.3
1690405.4
1735176.7
1779152.7
1822286
1864737.7
1906399.1
1947150.6
1987231.7
2026562.7
2064892.8
2102527.5
2139508.4
2175529.1
2210793
2245455.1
2279252.1
2312226.7
2344644.3
2376320.9
2407083.6
2437312.3
2466960.5
2495683.2
2523794.5
2551464.4
2578374.2
2604566.5
2630357.3
2655568.2
2679971.7
2703935.9
2727504.3
2750347.4
2772646.4
2794644.6
2816098.5
2836903.4
2857370.6
2877483.6
2896949.6
2915989.1
2934828.7
2953188.2
2970995.7
2988575.6
3005854.7
3022558.4
3038917
3055104.8
3070887.8
3086215.3
3101387.9
3116312.5
3130736.4
3144904.5
3158968.6
3172693.1
3186021.3
3199216.4
3212218.9
3224806.3
3237155.6
3249395.7
3261381.1
3273048
3284591.7
3295993.4
3307069.6
3317911.6
3328673.2
3339225.2
3349490.1
3359636.4
3369696.3
3379531.4
3389169.8
3398751.8
3408151.3
3417290.1
3426343.8
3435335.9
3444102
3452689.1
3461230.7
3469663
3477862.5
3485953.4
3494008.7
3501913.7
3509654.4
3517345.9
3524988.2
3532448.2
3539805.8
3547133.6
3554346.5
3561408.9
3568445
3575429.6
3582269.2
3588986.4
3595681.9
3602291.4
3608763.7
3615186.4
3621553
3627781.7
3633921.5
3640042.9
3646076.6
3651990.5
3657856.9
3663702
3669457.3
3675133.1
3680793.4
3686425.6
3691951.8
3697412.9
3702859.5
3708233.3
3713518.4
3718791.9
3724024.5
3729165
3734247.9
3739300.8
3744293.3
3749227.1
3754150.2
3759039.2
3763851.5
3768634.2
3773427.4
3778168.4
3782859.3
3787541.7
3792195
3796780.8
3801327
3805867
3810355.9
3814803.1
3819247.2
3823664.2
3828025
3832368.8
3836703.7
3840994.7
3845271
3849560.5
3853823.4
3858042.5
3862271
3866488.4
3870642.3
3874753.7
3878861.5
3882942.8
3886972.1
3890980.8
3894958.3
3898894.5
3902814.6
3906748.5
3910670.9
3914569.2
3918447.1
3922286.6
3926079.6
3929867.2
3933645.7
3937390.7
3941120.8
3944849.8
3948554.8
3952239.8
3955922.1
3959588
3963228.2
3966879.8
3970541.3
3974191.7
3977829.3
3981463.1
3985077.8
3988676.6
3992272.1
3995854.7
3999414.5
4002970.1
4006517.4
4010040.1
4013558.2
4017071.8
4020563.7
4024045.8
4027525.5
4031003.4
4034465.5
4037912.2
4041331.2
4044713.8
4048093.3
4051466.4
4054820.6
4058154.3
4061484.1
4064793.1
4068094.7
4071394.4
4074662.9
4077921.2
4081192.6
4084468.6
4087732.9
4090995.2
4094229.8
4097434.2
4100637.5
4103832.8
4107012.6
4110191.6
4113365.6
4116522.4
4119675.6
4122808
4125923.8
4129036.7
4132147.5
4135243.2
4138333.7
4141420.5
4144492.9
4147560.8
4150626.4
4153678.6
4156726.2
4159771.4
4162802.6
4165826.9
4168849.4
4171861.3
4174866.7
4177869.5
4180861.4
4183846.9
4186813.8
4189754.1
4192687.7
4195619.2
4198540
4201469.5
4204412.8
4207346.8
4210276.1
4213202
4216116.3
4219027.2
4221934.5
4224829.1
4227705.8
4230564.1
4233409.7
4236253.4
4239109.1
4241951.4
4244792.7
4247647.1
4250504.1
4253374.6
4256242.8
4259100.7
4261956.3
4264822.1
4267677.5
4270531.1
4273378.7
4276219.3
4279042
4281857
4284681.8
4287503.5
4290315.2
4293122.9
4295928.9
4298724.7
4301502.3
4304260.6
4307008.8
4309753.9
4312493.3
4315224.8
4317954.2
4320678.2
4323397.4
4326113.3
4328819.8
4331521.3
4334220.6
4336896.9
4339568.2
4342234
4344894.5
4347551.8
4350201.2
4352848.5
4355492.7
4358109.8
4360724.8
4363336.6
4365939.7
4368523.6
4371103
4373679.4
4376251.3
4378813.5
4381372.5
4383928.3
4386477.8
4389023.8
4391563.4
4394099.8
4396632.8
4399157.7
4401679.1
4404196.3
4406723.9
4409263.5
4411811.7
4414357.4
4416884
4419403.2
4421918.2
4424443.8
4426982.1
4429517.5
4432045.3
4434567.7
4437086
4439602.1
4442114.2
4444618.5
4447118.8
4449629.9
4452137.6
4454641.4
4457137.7
4459614.6
4462071.4
4464509
4466927.5
4469338.4
4471744.2
4474146.1
4476560.8
4478971.2
4481360.4
4483745.4
4486124.3
4488499
4490870.6
4493239
4495602.3
4497957.5
4500293.4
4502626.1
4504955.7
4507282.3
4509617.7
4511948.2
4514274.6
4516597.8
4518900.7
4521199.6
4523510.4
4525815.3
4528116.2
4530411.8
4532704.4
4534993.9
4537294.5
4539607.3
4541931.2
4544252
4546568.6
4548880.3
4551186.9
4553505.7
4555821.4
4558132
4560438.8
4562741.2
4565039.8
4567350.6
4569658.1
4571945.6
4574211.8
4576472.9
4578728.9
4580998.3
4583262.7
4585523.2
4587780.4
4590033.7
4592282.1
4594526.4
4596767.8
4599004.1
4601236.6
4603448.6
4605656.7
4607876.4
4610107.2
4612335.1
4614560.1
4616780
4618995.1
4621207.1
4623432.6
4625654.1
4627870.6
4630082.4
4632290.2
4634494.8
4636695.6
4638891.6
4641082.7
4643270.8
4645456
4647636.1
4649812.5
4651986
4654155.4
4656320
4658479.7
4660636.6
4662807
4664972.5
4667134.1
4669292.9
4671447.7
4673597.7
4675742.8
4677884.1
4680022.5
4682158
4684289.6
4686416.3
4688539.3
4690658.3
4692756
4694850.9
4696942.8
4699029.8
4701113.1
4703192.6
4705268.2
4707340.1
4709423.6
4711520.2
4713613.8
4715720.2
4717822.9
4719921.7
4722015.8
4724089.4
4726160.1
4728227.1
4730306.9
4732399.7
4734505.4
4736607.3
4738705.4
4740817.4
4742925.8
4745029.2
4747129
4749208.3
4751283.7
4753356.4
4755424.4
4757488.6
4759550
4761623.6
4763710.2
4765810.8
4767908.7
4769986.9
4772043.5
4774095.6
4776143.9
4778187.5
4780228.4
4782266.5
4784300.8
4786331.4
4788358.4
4790382.5
4792386.9
4794386.7
4796381.8
4798375.2
4800364.8
4802349.7
4804331.1
4806292.7
4808234.4
4810171.5
4812105.8
4814037.4
4815947.3
4817852.7
4819755.3
4821655
4823551.2
4825444.6
4827333.3
4829201.6
4831066.5
4832945.3
4834821.3
4836693.6
4838562.8
4840426.5
4842269.5
4844094.1
4845915.1
4847731.6
4849527.2
4851320.8
4853111.3
4854897.3
4856680.1
4858458
4860216.7
4861973.3
4863724.3
4865471.7
4867216.7
4868960.1
4870699.5
4872433.7
4874165.1
4875893.3
4877618.3
4879340.9
4881058.7
4882772.6
4884484.9
4886193.9
4887899
4889600.2
4891315.7
4893046
4894773.5
4896498.6
4898219.8
4899953.6
4901685.7
4903415
4905139.3
4906843.6
4908545.1
4910243
4911938.6
4913629.1
4915333.9
4917038.1
4918738.6
4920434.7
4922110.3
4923765
4925417.5
4927066.3
4928711.5
4930354
4932011.3
4933666.5
4935318.7
4936967
4938611.7
4940253.4
4941892.5
4943529.3
4945162
4946791.7
4948418.9
4950043.7
4951646.6
4953244.8
4954822.9
4956399
4957989.2
4959576.2
4961160.7
4962759.5
4964354.8
4965948.6
4967540.5
4969127.6
4970728.9
4972347
4973962.3
4975574
4977183.1
4978790
4980394.7
4981995
4983592.7
4985187.6
4986778.9
4988368.4
4989974.9
4991577.5
4993176.1
4994772.6
4996366.2
4997956.9
4999544.2
5001129.6
5002713.3
5004293.1
5005869.8
5007444.5
5009018.1
5010588.5
5012153.6
5013716.8
5015279.2
5016838
5018393.5
5019947
5021498.6
5023047.3
5024593.8
5026155.8
5027715
5029253.6
5030788.5
5032320.6
5033851
5035378.9
5036904.4
5038427.6
5039966.9
5041523.6
5043077.4
5044627.9
5046177
5047724.2
5049268.3
5050810.1
5052349.2
5053885.1
5055397.9
5056889.6
5058360.7
5059828.8
5061294.3
5062756.5
5064215.8
5065673.9
5067130.3
5068583.7
5070034.3
5071482.4
5072928.1
5074371.5
5075813.2
5077233.2
5078649.8
5080062.7
5081473.8
5082862.4
5084228.4
5085571.9
5086892.1
5088188.9
5089482.9
5090795.2
5092125.7
5093454.3
5094780.7
5096104.2
5097446.4
5098806.4
5100163.2
5101518.5
5102872.4
5104223.4
5105571.9
5106918.8
5108262.9
5109603.9
5110942.1
5112278.5
5113634.7
5115009.8
5116382.9
5117754.2
5119122.4
5120488.9
5121832.1
5123173
5124511.4
5125847.4
5127181.5
5128512.5
5129862.9
5131211.1
5132557.3
5133900.7
5135241.8
5136558.8
5137872.8
5139207.1
5140562.3
5141937.4
5143310
5144680.8
5146026.8
5147370.5
5148713
5150052.6
5151389.3
5152724.8
5154058.2
5155365.7
5156647.9
5157928.5
5159207
5160483.1
5161780.9
5163099.7
5164439.7
5165802.6
5167163.9
5168522.5
5169879.6
5171235.9
5172590.3
5173942.3
5175317
5176714.4
5178134.6
5179553
5180968.7
5182382.4
5183795.7
5185232.8
5186667.9
5188076
5189481.5
5190909.7
5192361.9
5193837
5195310.5
5196783
5198252.9
5199720.4
5201161.7
5202575.1
5203985.7
5205369.5
5206725.8
5208053.6
5209353.4
5210651.2
5211946
5213239.2
5214530.9
5215819.6
5217079.9
5218337.8
5219566.2
5220765.8
5221936.7
5223078.2
5224216.9
5225353.6
5226515.1
5227674
5228802.9
5229930.2
5231055.2
5232178.4
5233296.4
5234407.7
5235548.3
5236690.9
5237802.3
5238910.1
5240014.6
5241115.8
5242213.7
5243308.3
5244399.5
5245492
5246586
5247671.8
5248754.1
5249837.8
5250913.4
5251985.4
5253058.8
5254128.5
5255199.5
5256297.2
5257416.9
5258538.2
5259630.3
5260714.2
5261789.9
5262867
5263945.1
5265051
5266153.5
5267252.4
5268348.1
5269440.4
5270497.1
5271554.9
5272613.5
5273664
5274743.4
5275856.7
5276999.5
5278139.1
5279242.1
5280308.2
5281337.1
5282332.7
5283324.3
5284307.8
5285291.5
5286309.9
5287354.7
5288426
5289533.1
5290676.6
5291852.3
5293024.7
5294193.9
5295323.8
5296445.6
5297559.2
5298674.2
5299790.4
5300903
5302012.2
5303117.9
5304219.9
5305356.1
5306526.8
5307694
5308863
5310072.5
5311273.9
5312467.2
5313662.2
5314859.3
5316088
5317308.6
5318531.3
5319756.3
5320973.3
5322187.1
5323361.9
5324528.6
5325733.5
5326982.7
5328271.5
5329557.7
5330836
5332111.8
5333390.3
5334710.1
5336071.7
5337425.6
5338777.5
5340133.1
5341481.1
5342827
5344176.6
5345518.5
5346806.6
5348097.7
5349439.4
5350773.4
5352052.1
5353323.2
5354586.4
5355852.5
5357165.5
5358470.9
5359774.2
5361075.6
5362375
5363666.7
5364951.1
5366228
5367497.2
5368816.4
5370134.2
5371450.3
5372759.2
5374061
5375372
5376703
5378038
5379361
5380704.7
5382046.9
5383388
5384722.9
5386068.2
5387384.1
5388716.8
5390043
5391356.8
5392634.7
5393906
5395188.7
5396435
5397668.6
5398901.7
5400146.8
5401398.1
5402630.8
5403819.8
5405014.9
5406223
5407431.7
5408621.9
5409786.6
5410958.4
5412098.2
5413238.5
5414333.2
5415403.3
5416439.7
5417476.2
5418508.7
5419544.2
5420601.5
5421633
5422653.9
5423690.5
5424744.6
5425775.3
5426788.6
5427782.2
5428794.4
5429798.2
5430753.7
5431681.4
5432561.2
5433402.5
5434251.7
5435107.1
5435951.6
5436819
5437623.9
5438436.2
5439197.5
5439911.4
5440572.6
5441200
5441818.2
5442455.3
5443044.6
5443627.9
5444177.2
5444709.5
5445230.7
5445706.3
5446202.9
5446714.6
5447233
5447703.8
5448101.8
5448427.5
5448685.7
5448942.3
5449152.8
5449386.6
5449591.9
5449725.9
5449844.4
5449953.6
5450052.6
5450078.8
)
;

boundaryField
{
INLET
{
    type            cyclic;
}
OUTLET
{
    type            cyclic;
}
WALL
{
    type            fixedValue;
    value           uniform 0;
}
CENTER
{
    type            symmetryPlane;
}
frontAndBackPlanes
{
    type            empty;
}
}


// ************************************************************************* //

