/*--------------------------------*- C++ -*----------------------------------*\
| =========                 |                                                 |
| \\      /  F ield         | OpenFOAM: The Open Source CFD Toolbox           |
|  \\    /   O peration     | Version:  v1806                                 |
|   \\  /    A nd           | Web:      www.OpenFOAM.com                      |
|    \\/     M anipulation  |                                                 |
\*---------------------------------------------------------------------------*/
FoamFile
{
    version     2.0;
    format      ascii;
    class       volScalarField;
    location    "10000";
    object      nut;
}
// * * * * * * * * * * * * * * * * * * * * * * * * * * * * * * * * * * * * * //

dimensions      [0 2 -1 0 0 0 0];


internalField   nonuniform List<scalar> 
1025
(
5.03033e-10
4.24689e-08
4.2238e-07
2.28203e-06
6.53409e-06
1.2873e-05
2.07015e-05
2.93061e-05
3.81819e-05
4.70703e-05
5.58611e-05
6.45149e-05
7.30238e-05
8.13939e-05
8.96361e-05
9.77628e-05
0.000105787
0.000113719
0.000121571
0.000129351
0.000137068
0.00014473
0.000152343
0.000159914
0.000167446
0.000174947
0.000182418
0.000189865
0.00019729
0.000204697
0.000212088
0.000219466
0.000226833
0.000234192
0.000241544
0.000248891
0.000256234
0.000263574
0.000270915
0.000278256
0.000285598
0.000292942
0.000300291
0.000307644
0.000315002
0.000322366
0.000329737
0.000337115
0.000344501
0.000351896
0.000359301
0.000366714
0.000374138
0.000381572
0.000389017
0.000396475
0.000403944
0.000411425
0.000418919
0.000426425
0.000433945
0.000441478
0.000449025
0.000456586
0.000464162
0.000471752
0.000479357
0.000486977
0.000494613
0.000502264
0.000509931
0.000517614
0.000525313
0.00053303
0.000540762
0.000548511
0.000556277
0.000564061
0.000571863
0.000579682
0.000587518
0.000595373
0.000603247
0.000611138
0.000619049
0.000626978
0.000634926
0.000642893
0.00065088
0.000658887
0.000666912
0.000674958
0.000683024
0.000691111
0.000699219
0.000707347
0.000715497
0.000723667
0.000731859
0.000740072
0.000748306
0.000756563
0.000764843
0.000773144
0.000781469
0.000789816
0.000798185
0.000806579
0.000814996
0.000823436
0.000831901
0.000840389
0.000848902
0.000857439
0.000866002
0.000874589
0.000883201
0.000891839
0.000900503
0.000909193
0.000917909
0.000926651
0.00093542
0.000944217
0.00095304
0.000961892
0.00097077
0.000979676
0.000988611
0.000997575
0.00100657
0.00101559
0.00102464
0.00103372
0.00104283
0.00105197
0.00106114
0.00107034
0.00107957
0.00108883
0.00109813
0.00110745
0.00111681
0.0011262
0.00113562
0.00114508
0.00115457
0.00116409
0.00117364
0.00118323
0.00119286
0.00120252
0.00121221
0.00122194
0.00123171
0.00124151
0.00125134
0.00126121
0.00127112
0.00128107
0.00129105
0.00130108
0.00131114
0.00132123
0.00133137
0.00134155
0.00135176
0.00136201
0.00137231
0.00138264
0.00139301
0.00140343
0.00141389
0.00142439
0.00143493
0.00144551
0.00145613
0.0014668
0.00147751
0.00148827
0.00149906
0.0015099
0.00152079
0.00153172
0.00154269
0.00155372
0.00156479
0.0015759
0.00158705
0.00159826
0.00160951
0.00162081
0.00163216
0.00164356
0.001655
0.0016665
0.00167804
0.00168963
0.00170127
0.00171297
0.00172471
0.00173649
0.00174834
0.00176024
0.00177219
0.00178418
0.00179624
0.00180834
0.0018205
0.00183272
0.00184498
0.0018573
0.00186967
0.0018821
0.00189459
0.00190713
0.00191972
0.00193237
0.00194508
0.00195785
0.00197067
0.00198355
0.00199649
0.00200949
0.00202254
0.00203566
0.00204883
0.00206207
0.00207536
0.00208872
0.00210213
0.00211561
0.00212915
0.00214275
0.00215641
0.00217013
0.00218392
0.00219777
0.00221169
0.00222566
0.00223971
0.00225381
0.00226798
0.00228222
0.00229653
0.00231089
0.00232533
0.00233983
0.0023544
0.00236903
0.00238373
0.00239851
0.00241334
0.00242825
0.00244323
0.00245828
0.0024734
0.00248858
0.00250384
0.00251917
0.00253456
0.00255003
0.00256558
0.00258119
0.00259688
0.00261263
0.00262846
0.00264437
0.00266035
0.0026764
0.00269253
0.00270873
0.00272501
0.00274135
0.00275778
0.00277428
0.00279086
0.00280752
0.00282426
0.00284107
0.00285795
0.00287492
0.00289197
0.00290909
0.00292629
0.00294357
0.00296093
0.00297838
0.0029959
0.0030135
0.00303118
0.00304895
0.00306679
0.00308472
0.00310273
0.00312082
0.003139
0.00315725
0.0031756
0.00319402
0.00321253
0.00323112
0.0032498
0.00326856
0.00328741
0.00330634
0.00332536
0.00334446
0.00336366
0.00338294
0.0034023
0.00342175
0.00344129
0.00346092
0.00348063
0.00350044
0.00352033
0.00354031
0.00356039
0.00358055
0.0036008
0.00362114
0.00364157
0.0036621
0.00368271
0.00370341
0.00372421
0.00374509
0.00376607
0.00378715
0.00380832
0.00382957
0.00385093
0.00387237
0.00389391
0.00391554
0.00393727
0.00395909
0.00398101
0.00400302
0.00402513
0.00404733
0.00406963
0.00409202
0.00411451
0.0041371
0.00415978
0.00418257
0.00420544
0.00422842
0.0042515
0.00427467
0.00429794
0.00432131
0.00434478
0.00436834
0.00439201
0.00441578
0.00443965
0.00446361
0.00448768
0.00451185
0.00453611
0.00456048
0.00458495
0.00460952
0.00463419
0.00465896
0.00468384
0.00470882
0.0047339
0.00475908
0.00478437
0.00480976
0.00483525
0.00486084
0.00488654
0.00491234
0.00493825
0.00496426
0.00499037
0.00501659
0.00504291
0.00506935
0.00509588
0.00512252
0.00514926
0.00517612
0.00520307
0.00523013
0.0052573
0.00528457
0.00531195
0.00533944
0.00536704
0.00539474
0.00542255
0.00545046
0.00547848
0.00550661
0.00553485
0.0055632
0.00559165
0.00562022
0.00564889
0.00567766
0.00570655
0.00573554
0.00576465
0.00579386
0.00582318
0.00585261
0.00588215
0.0059118
0.00594156
0.00597143
0.00600141
0.00603149
0.00606169
0.006092
0.00612242
0.00615295
0.00618358
0.00621434
0.00624519
0.00627616
0.00630724
0.00633843
0.00636973
0.00640115
0.00643267
0.0064643
0.00649604
0.0065279
0.00655987
0.00659195
0.00662414
0.00665644
0.00668885
0.00672138
0.00675401
0.00678676
0.00681962
0.00685258
0.00688567
0.00691886
0.00695216
0.00698558
0.00701911
0.00705274
0.0070865
0.00712036
0.00715434
0.00718842
0.00722262
0.00725693
0.00729135
0.00732588
0.00736053
0.00739528
0.00743015
0.00746513
0.00750022
0.00753543
0.00757074
0.00760617
0.00764171
0.00767735
0.00771311
0.00774898
0.00778497
0.00782106
0.00785727
0.00789359
0.00793001
0.00796655
0.0080032
0.00803996
0.00807683
0.00811381
0.00815091
0.00818811
0.00822542
0.00826284
0.00830038
0.00833803
0.00837578
0.00841364
0.00845162
0.00848971
0.0085279
0.0085662
0.00860462
0.00864314
0.00868177
0.00872051
0.00875936
0.00879832
0.00883738
0.00887656
0.00891584
0.00895523
0.00899474
0.00903434
0.00907406
0.00911388
0.00915381
0.00919385
0.009234
0.00927425
0.00931461
0.00935508
0.00939565
0.00943633
0.00947712
0.00951802
0.00955902
0.00960012
0.00964133
0.00968265
0.00972407
0.0097656
0.00980723
0.00984896
0.0098908
0.00993274
0.00997478
0.0100169
0.0100592
0.0101015
0.010144
0.0101865
0.0102292
0.0102719
0.0103148
0.0103578
0.0104008
0.010444
0.0104872
0.0105306
0.0105741
0.0106176
0.0106613
0.010705
0.0107489
0.0107928
0.0108369
0.010881
0.0109253
0.0109696
0.011014
0.0110586
0.0111032
0.0111479
0.0111927
0.0112376
0.0112826
0.0113277
0.0113729
0.0114182
0.0114636
0.011509
0.0115546
0.0116003
0.011646
0.0116919
0.0117377
0.0117837
0.0118299
0.011876
0.0119223
0.0119686
0.0120151
0.0120617
0.0121083
0.012155
0.0122018
0.0122486
0.0122956
0.0123427
0.0123898
0.012437
0.0124843
0.0125317
0.0125791
0.0126267
0.0126743
0.012722
0.0127698
0.0128177
0.0128656
0.0129136
0.0129617
0.0130099
0.0130582
0.0131065
0.0131549
0.0132034
0.0132519
0.0133005
0.0133492
0.013398
0.0134468
0.0134957
0.0135447
0.0135938
0.0136429
0.0136921
0.0137414
0.0137907
0.0138401
0.0138896
0.0139391
0.0139887
0.0140383
0.014088
0.0141378
0.0141877
0.0142376
0.0142875
0.0143376
0.0143877
0.0144378
0.014488
0.0145383
0.0145886
0.014639
0.0146895
0.0147399
0.0147905
0.0148411
0.0148917
0.0149424
0.0149932
0.015044
0.0150949
0.0151458
0.0151967
0.0152477
0.0152988
0.0153499
0.015401
0.0154522
0.0155034
0.0155547
0.015606
0.0156573
0.0157087
0.0157602
0.0158117
0.0158632
0.0159147
0.0159663
0.0160179
0.0160696
0.0161213
0.016173
0.0162247
0.0162765
0.0163283
0.0163802
0.016432
0.016484
0.0165359
0.0165878
0.0166398
0.0166918
0.0167438
0.0167959
0.0168479
0.0169
0.0169521
0.0170043
0.0170564
0.0171086
0.0171607
0.0172129
0.0172652
0.0173174
0.0173696
0.0174218
0.0174741
0.0175263
0.0175786
0.0176309
0.0176831
0.0177354
0.0177877
0.01784
0.0178923
0.0179445
0.0179968
0.0180491
0.0181014
0.0181537
0.0182059
0.0182582
0.0183105
0.0183627
0.018415
0.0184672
0.0185194
0.0185716
0.0186238
0.018676
0.0187282
0.0187803
0.0188324
0.0188845
0.0189366
0.0189887
0.0190407
0.0190927
0.0191447
0.0191967
0.0192486
0.0193005
0.0193524
0.0194042
0.019456
0.0195078
0.0195596
0.0196113
0.0196629
0.0197146
0.0197662
0.0198177
0.0198692
0.0199207
0.0199722
0.0200235
0.0200748
0.0201261
0.0201774
0.0202286
0.0202797
0.0203308
0.0203818
0.0204328
0.0204837
0.0205345
0.0205853
0.0206361
0.0206867
0.0207374
0.0207879
0.0208384
0.0208888
0.0209391
0.0209894
0.0210396
0.0210897
0.0211398
0.0211898
0.0212397
0.0212895
0.0213392
0.0213889
0.0214385
0.021488
0.0215374
0.0215868
0.021636
0.0216852
0.0217342
0.0217832
0.0218321
0.0218809
0.0219296
0.0219783
0.0220268
0.0220752
0.0221235
0.0221717
0.0222198
0.0222678
0.0223157
0.0223635
0.0224112
0.0224588
0.0225063
0.0225537
0.0226009
0.022648
0.0226951
0.022742
0.0227888
0.0228355
0.022882
0.0229285
0.0229748
0.023021
0.0230671
0.023113
0.0231588
0.0232045
0.0232501
0.0232955
0.0233408
0.023386
0.0234311
0.023476
0.0235208
0.0235654
0.0236099
0.0236543
0.0236985
0.0237426
0.0237865
0.0238303
0.023874
0.0239175
0.0239609
0.0240041
0.0240472
0.0240902
0.0241329
0.0241756
0.0242181
0.0242604
0.0243026
0.0243447
0.0243866
0.0244283
0.0244699
0.0245113
0.0245526
0.0245937
0.0246347
0.0246755
0.0247162
0.0247567
0.024797
0.0248372
0.0248773
0.0249171
0.0249569
0.0249964
0.0250358
0.0250751
0.0251142
0.0251531
0.0251918
0.0252305
0.0252689
0.0253072
0.0253454
0.0253833
0.0254212
0.0254588
0.0254963
0.0255337
0.0255709
0.025608
0.0256448
0.0256816
0.0257182
0.0257546
0.0257909
0.025827
0.025863
0.0258989
0.0259345
0.0259701
0.0260055
0.0260408
0.0260759
0.0261109
0.0261457
0.0261804
0.026215
0.0262494
0.0262837
0.0263179
0.0263519
0.0263859
0.0264196
0.0264533
0.0264869
0.0265203
0.0265537
0.0265869
0.02662
0.026653
0.0266859
0.0267187
0.0267514
0.026784
0.0268165
0.0268489
0.0268813
0.0269136
0.0269457
0.0269779
0.0270099
0.0270419
0.0270738
0.0271057
0.0271375
0.0271693
0.027201
0.0272327
0.0272643
0.027296
0.0273276
0.0273591
0.0273907
0.0274222
0.0274538
0.0274853
0.0275169
0.0275484
0.02758
0.0276116
0.0276432
0.0276749
0.0277065
0.0277383
0.0277701
0.0278019
0.0278338
0.0278658
0.0278978
0.0279299
0.0279622
0.0279944
0.0280268
0.0280593
0.028092
0.0281247
0.0281575
0.0281905
0.0282236
0.0282568
0.0282902
0.0283238
0.0283574
0.0283913
0.0284253
0.0284595
0.0284938
0.0285283
0.0285631
0.0285979
0.028633
0.0286683
0.0287038
0.0287395
0.0287754
0.0288115
0.0288477
0.0288842
0.028921
0.0289579
0.028995
0.0290324
0.0290699
0.0291077
0.0291457
0.0291838
0.0292222
0.0292608
0.0292995
0.0293385
0.0293776
0.0294169
0.0294563
0.0294959
0.0295357
0.0295756
0.0296156
0.0296557
0.0296959
0.0297362
0.0297766
0.029817
0.0298575
0.0298979
0.0299384
0.0299788
0.0300192
0.0300595
0.0300997
0.0301398
0.0301798
0.0302196
0.0302591
0.0302985
0.0303375
0.0303763
0.0304147
0.0304528
0.0304904
0.0305276
0.0305643
0.0306005
0.0306361
0.0306711
0.0307055
0.0307392
0.0307721
0.0308043
0.0308356
0.0308661
0.0308956
0.0309242
0.0309518
0.0309783
0.0310037
0.0310279
0.031051
0.0310728
0.0310933
0.0311125
0.0311303
0.0311467
0.0311616
0.031175
0.0311868
0.031197
0.0312056
0.0312126
0.0312179
0.0312214
0.0312231
)
;

boundaryField
{
    INLET
    {
        type            cyclic;
    }
    OUTLET
    {
        type            cyclic;
    }
    CENTER
    {
        type            symmetryPlane;
    }
    WALL
    {
        type            fixedValue;
        value           uniform 0;
    }
    frontAndBackPlanes
    {
        type            empty;
    }
}


// ************************************************************************* //
