/*--------------------------------*- C++ -*----------------------------------*\
| =========                 |                                                 |
| \\      /  F ield         | OpenFOAM: The Open Source CFD Toolbox           |
|  \\    /   O peration     | Version:  v1806                                 |
|   \\  /    A nd           | Web:      www.OpenFOAM.com                      |
|    \\/     M anipulation  |                                                 |
\*---------------------------------------------------------------------------*/
FoamFile
{
    version     2.0;
    format      ascii;
    class       volScalarField;
    location    "10000";
    object      p;
}
// * * * * * * * * * * * * * * * * * * * * * * * * * * * * * * * * * * * * * //

dimensions      [0 2 -2 0 0 0 0];


internalField   nonuniform List<scalar> 
1025
(
3.5043e-17
1.3525e-16
1.56691e-16
1.5269e-16
1.50337e-16
1.52307e-16
1.56208e-16
1.6103e-16
1.66804e-16
1.73633e-16
1.81497e-16
1.90354e-16
2.00175e-16
2.10945e-16
2.22619e-16
2.35187e-16
2.48643e-16
2.62966e-16
2.7815e-16
2.94183e-16
3.11034e-16
3.28702e-16
3.47181e-16
3.66453e-16
3.86488e-16
4.07333e-16
4.28939e-16
4.51284e-16
4.74349e-16
4.98169e-16
5.22697e-16
5.47936e-16
5.73899e-16
6.00549e-16
6.27875e-16
6.55896e-16
6.84595e-16
7.13967e-16
7.44009e-16
7.74689e-16
8.06002e-16
8.37972e-16
8.70564e-16
9.03763e-16
9.37634e-16
9.7211e-16
1.0072e-15
1.04285e-15
1.07912e-15
1.11599e-15
1.15345e-15
1.19148e-15
1.23013e-15
1.26937e-15
1.30909e-15
1.34938e-15
1.39026e-15
1.4317e-15
1.47367e-15
1.51619e-15
1.55924e-15
1.6028e-15
1.64691e-15
1.69153e-15
1.73668e-15
1.78231e-15
1.82852e-15
1.87524e-15
1.9225e-15
1.97021e-15
2.01838e-15
2.067e-15
2.11611e-15
2.16573e-15
2.21589e-15
2.26647e-15
2.31751e-15
2.36902e-15
2.42101e-15
2.47346e-15
2.52637e-15
2.57975e-15
2.63353e-15
2.68774e-15
2.74242e-15
2.79753e-15
2.85309e-15
2.9091e-15
2.96548e-15
3.0223e-15
3.07956e-15
3.13726e-15
3.19529e-15
3.25374e-15
3.31261e-15
3.37194e-15
3.43163e-15
3.49165e-15
3.55206e-15
3.61282e-15
3.67389e-15
3.73547e-15
3.79741e-15
3.85972e-15
3.92242e-15
3.98554e-15
4.04892e-15
4.11251e-15
4.17667e-15
4.24123e-15
4.30616e-15
4.37133e-15
4.43688e-15
4.50263e-15
4.56881e-15
4.63541e-15
4.70227e-15
4.76963e-15
4.8373e-15
4.90523e-15
4.97344e-15
5.04209e-15
5.1109e-15
5.17996e-15
5.24944e-15
5.31933e-15
5.38954e-15
5.45991e-15
5.53047e-15
5.60161e-15
5.67294e-15
5.74459e-15
5.81648e-15
5.88872e-15
5.96116e-15
6.03391e-15
6.10693e-15
6.18029e-15
6.2537e-15
6.32742e-15
6.40159e-15
6.47597e-15
6.55063e-15
6.62586e-15
6.70106e-15
6.77638e-15
6.85226e-15
6.92832e-15
7.00454e-15
7.08116e-15
7.1579e-15
7.235e-15
7.31243e-15
7.38996e-15
7.46775e-15
7.54582e-15
7.62407e-15
7.70267e-15
7.78138e-15
7.86091e-15
7.94032e-15
8.0198e-15
8.09976e-15
8.17991e-15
8.26026e-15
8.34088e-15
8.42177e-15
8.50269e-15
8.58397e-15
8.66563e-15
8.74739e-15
8.82915e-15
8.9113e-15
8.99387e-15
9.07665e-15
9.15946e-15
9.24237e-15
9.32538e-15
9.40919e-15
9.493e-15
9.57718e-15
9.66132e-15
9.74583e-15
9.83052e-15
9.91499e-15
1.00001e-14
1.00853e-14
1.0171e-14
1.02566e-14
1.03424e-14
1.04285e-14
1.05149e-14
1.06013e-14
1.06879e-14
1.07745e-14
1.08611e-14
1.09483e-14
1.1036e-14
1.11234e-14
1.12109e-14
1.12989e-14
1.13872e-14
1.14755e-14
1.15638e-14
1.16528e-14
1.17419e-14
1.18308e-14
1.192e-14
1.20094e-14
1.2099e-14
1.2189e-14
1.2279e-14
1.23688e-14
1.24592e-14
1.25496e-14
1.26403e-14
1.27313e-14
1.28223e-14
1.29135e-14
1.30049e-14
1.30967e-14
1.31885e-14
1.32802e-14
1.33721e-14
1.34641e-14
1.35559e-14
1.36485e-14
1.37413e-14
1.38345e-14
1.39272e-14
1.402e-14
1.41132e-14
1.42066e-14
1.43002e-14
1.43943e-14
1.44886e-14
1.45821e-14
1.4676e-14
1.47705e-14
1.48655e-14
1.49603e-14
1.50546e-14
1.51496e-14
1.52439e-14
1.53382e-14
1.54342e-14
1.553e-14
1.56256e-14
1.57211e-14
1.58169e-14
1.59137e-14
1.60097e-14
1.61057e-14
1.6202e-14
1.6299e-14
1.63963e-14
1.64933e-14
1.65905e-14
1.66879e-14
1.67859e-14
1.68834e-14
1.69806e-14
1.70783e-14
1.7176e-14
1.72735e-14
1.73714e-14
1.74695e-14
1.75679e-14
1.76666e-14
1.77657e-14
1.78639e-14
1.79624e-14
1.80615e-14
1.8161e-14
1.82603e-14
1.8359e-14
1.84584e-14
1.85584e-14
1.8658e-14
1.87583e-14
1.88587e-14
1.89575e-14
1.90568e-14
1.9157e-14
1.92568e-14
1.93574e-14
1.94578e-14
1.9557e-14
1.96578e-14
1.97594e-14
1.98601e-14
1.99599e-14
2.006e-14
2.0161e-14
2.02629e-14
2.03644e-14
2.04662e-14
2.05682e-14
2.06697e-14
2.07715e-14
2.08739e-14
2.09755e-14
2.10777e-14
2.11802e-14
2.12828e-14
2.13852e-14
2.14879e-14
2.15917e-14
2.16947e-14
2.1797e-14
2.19001e-14
2.20036e-14
2.21062e-14
2.22091e-14
2.23123e-14
2.24157e-14
2.25191e-14
2.26228e-14
2.27266e-14
2.28293e-14
2.29334e-14
2.30386e-14
2.31428e-14
2.32469e-14
2.33512e-14
2.34556e-14
2.35614e-14
2.36659e-14
2.3771e-14
2.38771e-14
2.3982e-14
2.40875e-14
2.41936e-14
2.42988e-14
2.44045e-14
2.45103e-14
2.46142e-14
2.47204e-14
2.48266e-14
2.49327e-14
2.50374e-14
2.51425e-14
2.52481e-14
2.53545e-14
2.54611e-14
2.55662e-14
2.56721e-14
2.57781e-14
2.58846e-14
2.59883e-14
2.60934e-14
2.61972e-14
2.63032e-14
2.64113e-14
2.65191e-14
2.66245e-14
2.67304e-14
2.68375e-14
2.6944e-14
2.70513e-14
2.71571e-14
2.72629e-14
2.73705e-14
2.74781e-14
2.75853e-14
2.76927e-14
2.78005e-14
2.791e-14
2.80175e-14
2.81211e-14
2.82288e-14
2.83385e-14
2.845e-14
2.8555e-14
2.86597e-14
2.87693e-14
2.88782e-14
2.89883e-14
2.90961e-14
2.92043e-14
2.93135e-14
2.94214e-14
2.95298e-14
2.96391e-14
2.97489e-14
2.98574e-14
2.99661e-14
3.00735e-14
3.01831e-14
3.02931e-14
3.04016e-14
3.05113e-14
3.06186e-14
3.07276e-14
3.08387e-14
3.0949e-14
3.10569e-14
3.11632e-14
3.12716e-14
3.13805e-14
3.14853e-14
3.1598e-14
3.17066e-14
3.18131e-14
3.1923e-14
3.20334e-14
3.21434e-14
3.22497e-14
3.23569e-14
3.2465e-14
3.25739e-14
3.26841e-14
3.27943e-14
3.29021e-14
3.30074e-14
3.31152e-14
3.32244e-14
3.33352e-14
3.34469e-14
3.35544e-14
3.3662e-14
3.3773e-14
3.38806e-14
3.399e-14
3.40977e-14
3.42096e-14
3.43198e-14
3.44268e-14
3.45362e-14
3.46474e-14
3.47578e-14
3.48656e-14
3.4976e-14
3.50848e-14
3.51952e-14
3.53073e-14
3.54153e-14
3.5525e-14
3.56322e-14
3.57402e-14
3.58499e-14
3.59588e-14
3.60643e-14
3.61766e-14
3.62864e-14
3.6397e-14
3.65026e-14
3.66141e-14
3.67256e-14
3.68371e-14
3.69494e-14
3.70575e-14
3.71674e-14
3.72814e-14
3.73988e-14
3.75011e-14
3.76051e-14
3.77226e-14
3.78408e-14
3.79515e-14
3.80605e-14
3.81754e-14
3.8297e-14
3.84052e-14
3.85126e-14
3.86249e-14
3.87398e-14
3.88572e-14
3.89771e-14
3.90869e-14
3.92077e-14
3.93208e-14
3.94382e-14
3.9553e-14
3.96695e-14
3.9781e-14
3.98991e-14
4.00147e-14
4.01303e-14
4.02443e-14
4.03506e-14
4.0472e-14
4.05893e-14
4.07023e-14
4.08194e-14
4.09349e-14
4.10504e-14
4.11683e-14
4.12821e-14
4.13941e-14
4.1512e-14
4.1629e-14
4.17402e-14
4.18471e-14
4.19632e-14
4.20801e-14
4.2197e-14
4.23155e-14
4.24281e-14
4.25382e-14
4.26467e-14
4.27767e-14
4.28984e-14
4.301e-14
4.31266e-14
4.32465e-14
4.33614e-14
4.34762e-14
4.3591e-14
4.3709e-14
4.38221e-14
4.39417e-14
4.40679e-14
4.41858e-14
4.43003e-14
4.44132e-14
4.4526e-14
4.46403e-14
4.47547e-14
4.4864e-14
4.49866e-14
4.5114e-14
4.52249e-14
4.5339e-14
4.54629e-14
4.55753e-14
4.56958e-14
4.5818e-14
4.59384e-14
4.60522e-14
4.61742e-14
4.62961e-14
4.64163e-14
4.6538e-14
4.66597e-14
4.67732e-14
4.68931e-14
4.70179e-14
4.71492e-14
4.7264e-14
4.73689e-14
4.74754e-14
4.76047e-14
4.77274e-14
4.78452e-14
4.79677e-14
4.80821e-14
4.8198e-14
4.83138e-14
4.84246e-14
4.85322e-14
4.86608e-14
4.87893e-14
4.89031e-14
4.90103e-14
4.91256e-14
4.92473e-14
4.93673e-14
4.94823e-14
4.9594e-14
4.97105e-14
4.98334e-14
4.99513e-14
5.00755e-14
5.02077e-14
5.0327e-14
5.04269e-14
5.05331e-14
5.06585e-14
5.07806e-14
5.08995e-14
5.1023e-14
5.11511e-14
5.12584e-14
5.1372e-14
5.14951e-14
5.16261e-14
5.1741e-14
5.18606e-14
5.19705e-14
5.20947e-14
5.22124e-14
5.2322e-14
5.24443e-14
5.25759e-14
5.26805e-14
5.27882e-14
5.28989e-14
5.30442e-14
5.31768e-14
5.32903e-14
5.33943e-14
5.3495e-14
5.3624e-14
5.37434e-14
5.38563e-14
5.39974e-14
5.4129e-14
5.42479e-14
5.43542e-14
5.44667e-14
5.45696e-14
5.4688e-14
5.48218e-14
5.49431e-14
5.50735e-14
5.52131e-14
5.53463e-14
5.54794e-14
5.56186e-14
5.5736e-14
5.58563e-14
5.60073e-14
5.61366e-14
5.62565e-14
5.6407e-14
5.65083e-14
5.66369e-14
5.67869e-14
5.69091e-14
5.70007e-14
5.71227e-14
5.72476e-14
5.73845e-14
5.75273e-14
5.76789e-14
5.7785e-14
5.79061e-14
5.8024e-14
5.81509e-14
5.82805e-14
5.83859e-14
5.85122e-14
5.86534e-14
5.87644e-14
5.88663e-14
5.90039e-14
5.91383e-14
5.92756e-14
5.93798e-14
5.94929e-14
5.96147e-14
5.97364e-14
5.9855e-14
5.99793e-14
6.01093e-14
6.02244e-14
6.03541e-14
6.04835e-14
6.0604e-14
6.07273e-14
6.08591e-14
6.09644e-14
6.10784e-14
6.123e-14
6.13786e-14
6.15298e-14
6.1646e-14
6.17591e-14
6.18865e-14
6.20253e-14
6.21551e-14
6.22791e-14
6.24287e-14
6.25723e-14
6.26957e-14
6.28217e-14
6.29761e-14
6.31217e-14
6.32585e-14
6.3415e-14
6.35656e-14
6.36904e-14
6.38434e-14
6.40243e-14
6.41541e-14
6.42894e-14
6.44469e-14
6.45929e-14
6.47556e-14
6.4918e-14
6.50633e-14
6.52194e-14
6.53809e-14
6.55366e-14
6.56865e-14
6.58583e-14
6.60132e-14
6.61733e-14
6.63276e-14
6.64871e-14
6.66354e-14
6.67889e-14
6.69531e-14
6.71224e-14
6.72642e-14
6.74165e-14
6.75795e-14
6.77314e-14
6.78991e-14
6.80504e-14
6.81852e-14
6.83359e-14
6.85078e-14
6.86526e-14
6.88024e-14
6.89413e-14
6.90852e-14
6.92395e-14
6.93564e-14
6.95154e-14
6.96583e-14
6.97797e-14
6.99062e-14
7.00535e-14
7.01952e-14
7.0347e-14
7.05039e-14
7.06083e-14
7.07332e-14
7.08735e-14
7.10187e-14
7.11791e-14
7.13289e-14
7.14629e-14
7.1576e-14
7.17197e-14
7.18529e-14
7.20215e-14
7.2149e-14
7.22813e-14
7.24184e-14
7.25603e-14
7.27221e-14
7.28633e-14
7.29942e-14
7.31148e-14
7.32301e-14
7.33501e-14
7.34699e-14
7.35895e-14
7.37336e-14
7.38625e-14
7.39713e-14
7.407e-14
7.42128e-14
7.43455e-14
7.44582e-14
7.45805e-14
7.47171e-14
7.48486e-14
7.5004e-14
7.50912e-14
7.52169e-14
7.5352e-14
7.54819e-14
7.56116e-14
7.57505e-14
7.58604e-14
7.60033e-14
7.6146e-14
7.62836e-14
7.64161e-14
7.65436e-14
7.67084e-14
7.68446e-14
7.69665e-14
7.71068e-14
7.72653e-14
7.73956e-14
7.75348e-14
7.76459e-14
7.77752e-14
7.79134e-14
7.80788e-14
7.81796e-14
7.8271e-14
7.83531e-14
7.8535e-14
7.86711e-14
7.87707e-14
7.8879e-14
7.8996e-14
7.91217e-14
7.9256e-14
7.93632e-14
7.9479e-14
7.95768e-14
7.96565e-14
7.98245e-14
7.99479e-14
8.00709e-14
8.01849e-14
8.02811e-14
8.03509e-14
8.04378e-14
8.05679e-14
8.06199e-14
8.07061e-14
8.08007e-14
8.09037e-14
8.1032e-14
8.11258e-14
8.11769e-14
8.12278e-14
8.13209e-14
8.1439e-14
8.14979e-14
8.15314e-14
8.15984e-14
8.16818e-14
8.17816e-14
8.18562e-14
8.19306e-14
8.20378e-14
8.21447e-14
8.21857e-14
8.22429e-14
8.23488e-14
8.24464e-14
8.25436e-14
8.26486e-14
8.2705e-14
8.27853e-14
8.28974e-14
8.29612e-14
8.30408e-14
8.3144e-14
8.32389e-14
8.32862e-14
8.33884e-14
8.34825e-14
8.35606e-14
8.36152e-14
8.3654e-14
8.37392e-14
8.3855e-14
8.39858e-14
8.40242e-14
8.41313e-14
8.42532e-14
8.439e-14
8.44885e-14
8.45716e-14
8.46469e-14
8.4782e-14
8.48717e-14
8.4909e-14
8.49536e-14
8.50796e-14
8.5183e-14
8.5264e-14
8.5352e-14
8.54544e-14
8.55055e-14
8.55564e-14
8.56867e-14
8.57156e-14
8.58668e-14
8.60031e-14
8.60889e-14
8.62385e-14
8.63663e-14
8.64371e-14
8.64442e-14
8.65286e-14
8.66127e-14
8.67244e-14
8.67801e-14
8.68912e-14
8.70018e-14
8.71535e-14
8.71809e-14
8.72083e-14
8.73038e-14
8.73718e-14
8.74938e-14
8.75479e-14
8.76421e-14
8.77092e-14
8.77493e-14
8.77626e-14
8.78157e-14
8.7829e-14
8.79608e-14
8.81317e-14
8.81055e-14
8.81446e-14
8.82877e-14
8.84044e-14
8.83785e-14
8.84043e-14
8.84171e-14
8.85322e-14
8.85959e-14
8.8672e-14
8.871e-14
8.87982e-14
8.89615e-14
8.90366e-14
8.89992e-14
8.89619e-14
8.90857e-14
8.92215e-14
8.93076e-14
8.92831e-14
8.92709e-14
8.92952e-14
8.94408e-14
8.95616e-14
8.96579e-14
8.96939e-14
8.97657e-14
8.98014e-14
8.98489e-14
8.98371e-14
8.98842e-14
8.99077e-14
9.00482e-14
9.00249e-14
8.999e-14
9.00943e-14
9.01405e-14
9.0152e-14
9.01634e-14
9.01863e-14
9.02318e-14
9.02091e-14
9.02091e-14
9.02429e-14
9.02429e-14
9.03212e-14
9.03881e-14
9.03104e-14
9.02993e-14
9.03544e-14
9.03874e-14
9.03546e-14
9.03436e-14
9.03328e-14
9.0387e-14
9.0441e-14
9.0441e-14
9.04839e-14
9.04839e-14
9.04519e-14
9.0367e-14
9.03988e-14
9.0462e-14
9.0357e-14
9.05036e-14
9.05245e-14
9.05765e-14
9.05868e-14
9.05455e-14
9.05146e-14
9.05557e-14
9.05761e-14
9.05659e-14
9.05456e-14
9.06165e-14
9.06468e-14
9.07172e-14
9.07773e-14
9.07873e-14
9.07077e-14
9.06977e-14
9.07472e-14
9.07768e-14
9.08063e-14
9.0865e-14
9.08943e-14
9.08749e-14
9.08652e-14
9.09038e-14
9.08653e-14
9.08653e-14
9.10184e-14
9.10947e-14
9.10757e-14
9.11515e-14
9.12271e-14
9.134e-14
9.15089e-14
9.15089e-14
9.14903e-14
9.1546e-14
9.16571e-14
9.1694e-14
9.17492e-14
9.18958e-14
9.19141e-14
9.19505e-14
9.19686e-14
9.2041e-14
9.2077e-14
9.21488e-14
9.22383e-14
9.22383e-14
9.22561e-14
9.24508e-14
9.24861e-14
9.26443e-14
9.26793e-14
9.26968e-14
9.26098e-14
9.26098e-14
9.26098e-14
9.25926e-14
9.26783e-14
9.27635e-14
9.27466e-14
9.27635e-14
9.28478e-14
9.28645e-14
9.28645e-14
9.29644e-14
9.29313e-14
9.28817e-14
9.28817e-14
9.29145e-14
9.29634e-14
9.29309e-14
9.29309e-14
9.30209e-14
)
;

boundaryField
{
    INLET
    {
        type            cyclic;
    }
    OUTLET
    {
        type            cyclic;
    }
    CENTER
    {
        type            symmetryPlane;
    }
    WALL
    {
        type            zeroGradient;
    }
    frontAndBackPlanes
    {
        type            empty;
    }
}


// ************************************************************************* //
