/*--------------------------------*- C++ -*----------------------------------*\
| =========                 |                                                 |
| \\      /  F ield         | OpenFOAM: The Open Source CFD Toolbox           |
|  \\    /   O peration     | Version:  v1806                                 |
|   \\  /    A nd           | Web:      www.OpenFOAM.com                      |
|    \\/     M anipulation  |                                                 |
\*---------------------------------------------------------------------------*/
FoamFile
{
    version     2.0;
    format      ascii;
    class       surfaceScalarField;
    location    "10000";
    object      phi;
}
// * * * * * * * * * * * * * * * * * * * * * * * * * * * * * * * * * * * * * //

dimensions      [0 3 -1 0 0 0 0];
oriented        oriented;


internalField   nonuniform List<scalar> 
1024
(
-4.11745e-18
-4.11945e-18
-4.11961e-18
-4.12069e-18
-4.12059e-18
-4.12114e-18
-4.12098e-18
-4.12128e-18
-4.12113e-18
-4.12134e-18
-4.12122e-18
-4.12137e-18
-4.12126e-18
-4.12134e-18
-4.12122e-18
-4.12132e-18
-4.12123e-18
-4.12132e-18
-4.12124e-18
-4.12133e-18
-4.12127e-18
-4.12133e-18
-4.12131e-18
-4.12138e-18
-4.12137e-18
-4.12143e-18
-4.1214e-18
-4.12141e-18
-4.12138e-18
-4.1214e-18
-4.12136e-18
-4.12143e-18
-4.12138e-18
-4.12143e-18
-4.1214e-18
-4.12144e-18
-4.12141e-18
-4.12145e-18
-4.1214e-18
-4.12137e-18
-4.12133e-18
-4.12137e-18
-4.12129e-18
-4.12139e-18
-4.1213e-18
-4.12136e-18
-4.1213e-18
-4.12133e-18
-4.12131e-18
-4.12134e-18
-4.12132e-18
-4.12135e-18
-4.12133e-18
-4.12131e-18
-4.12129e-18
-4.12131e-18
-4.12128e-18
-4.12128e-18
-4.12124e-18
-4.12122e-18
-4.12121e-18
-4.12125e-18
-4.12115e-18
-4.1212e-18
-4.1212e-18
-4.12128e-18
-4.12124e-18
-4.12125e-18
-4.12116e-18
-4.12115e-18
-4.12105e-18
-4.12103e-18
-4.12102e-18
-4.12107e-18
-4.121e-18
-4.12105e-18
-4.12101e-18
-4.12107e-18
-4.12102e-18
-4.12106e-18
-4.12102e-18
-4.121e-18
-4.121e-18
-4.12104e-18
-4.12099e-18
-4.12103e-18
-4.12099e-18
-4.12101e-18
-4.12101e-18
-4.12104e-18
-4.12104e-18
-4.12099e-18
-4.12094e-18
-4.12094e-18
-4.12091e-18
-4.12092e-18
-4.12078e-18
-4.1207e-18
-4.12068e-18
-4.12065e-18
-4.12064e-18
-4.12068e-18
-4.12066e-18
-4.12068e-18
-4.12067e-18
-4.1206e-18
-4.12046e-18
-4.12062e-18
-4.1206e-18
-4.1206e-18
-4.12056e-18
-4.12058e-18
-4.12046e-18
-4.12047e-18
-4.12054e-18
-4.12056e-18
-4.12064e-18
-4.12065e-18
-4.12064e-18
-4.12053e-18
-4.12049e-18
-4.12036e-18
-4.12036e-18
-4.1204e-18
-4.12035e-18
-4.12028e-18
-4.12017e-18
-4.12022e-18
-4.12019e-18
-4.12016e-18
-4.1201e-18
-4.11999e-18
-4.11994e-18
-4.11994e-18
-4.11988e-18
-4.1198e-18
-4.11975e-18
-4.11972e-18
-4.11969e-18
-4.11971e-18
-4.11966e-18
-4.11971e-18
-4.1198e-18
-4.11968e-18
-4.1197e-18
-4.11975e-18
-4.11974e-18
-4.11963e-18
-4.11959e-18
-4.11958e-18
-4.11953e-18
-4.11956e-18
-4.11956e-18
-4.11958e-18
-4.11954e-18
-4.11957e-18
-4.11969e-18
-4.11971e-18
-4.12e-18
-4.11998e-18
-4.11992e-18
-4.12003e-18
-4.11998e-18
-4.12001e-18
-4.11994e-18
-4.11996e-18
-4.1199e-18
-4.11992e-18
-4.11987e-18
-4.11987e-18
-4.11985e-18
-4.11988e-18
-4.11982e-18
-4.11987e-18
-4.11969e-18
-4.11969e-18
-4.11968e-18
-4.11982e-18
-4.11984e-18
-4.11988e-18
-4.11981e-18
-4.11979e-18
-4.11972e-18
-4.1195e-18
-4.11968e-18
-4.11973e-18
-4.11966e-18
-4.11971e-18
-4.11969e-18
-4.11971e-18
-4.11965e-18
-4.11944e-18
-4.11931e-18
-4.11923e-18
-4.1191e-18
-4.11914e-18
-4.11934e-18
-4.11927e-18
-4.11918e-18
-4.11929e-18
-4.11925e-18
-4.11926e-18
-4.11933e-18
-4.11945e-18
-4.11952e-18
-4.11925e-18
-4.11918e-18
-4.1192e-18
-4.11915e-18
-4.1192e-18
-4.11928e-18
-4.11905e-18
-4.11912e-18
-4.11894e-18
-4.1192e-18
-4.11928e-18
-4.11922e-18
-4.11926e-18
-4.11921e-18
-4.11926e-18
-4.11913e-18
-4.11885e-18
-4.11864e-18
-4.1186e-18
-4.11862e-18
-4.11874e-18
-4.11868e-18
-4.1186e-18
-4.1184e-18
-4.11846e-18
-4.11847e-18
-4.11853e-18
-4.11847e-18
-4.11855e-18
-4.11844e-18
-4.11817e-18
-4.11811e-18
-4.11817e-18
-4.11812e-18
-4.11764e-18
-4.11753e-18
-4.11746e-18
-4.11728e-18
-4.11741e-18
-4.1176e-18
-4.11754e-18
-4.11761e-18
-4.11761e-18
-4.11752e-18
-4.11764e-18
-4.11729e-18
-4.11733e-18
-4.11731e-18
-4.11729e-18
-4.11723e-18
-4.11726e-18
-4.11722e-18
-4.1173e-18
-4.1169e-18
-4.11656e-18
-4.11635e-18
-4.11628e-18
-4.11605e-18
-4.11571e-18
-4.11588e-18
-4.11606e-18
-4.11613e-18
-4.11627e-18
-4.1163e-18
-4.11582e-18
-4.1158e-18
-4.11583e-18
-4.11573e-18
-4.11591e-18
-4.11551e-18
-4.11554e-18
-4.11555e-18
-4.11501e-18
-4.11481e-18
-4.11453e-18
-4.11348e-18
-4.11327e-18
-4.11308e-18
-4.11283e-18
-4.1127e-18
-4.11243e-18
-4.11198e-18
-4.11218e-18
-4.11208e-18
-4.11176e-18
-4.11144e-18
-4.11142e-18
-4.11144e-18
-4.11165e-18
-4.11162e-18
-4.11173e-18
-4.11171e-18
-4.11157e-18
-4.11149e-18
-4.1116e-18
-4.11147e-18
-4.11164e-18
-4.11168e-18
-4.11183e-18
-4.11192e-18
-4.1121e-18
-4.11196e-18
-4.11145e-18
-4.11129e-18
-4.11147e-18
-4.11156e-18
-4.11077e-18
-4.11084e-18
-4.11093e-18
-4.11091e-18
-4.11096e-18
-4.1109e-18
-4.11093e-18
-4.1111e-18
-4.11145e-18
-4.11201e-18
-4.11176e-18
-4.11158e-18
-4.11156e-18
-4.1115e-18
-4.11213e-18
-4.11213e-18
-4.11221e-18
-4.11228e-18
-4.11213e-18
-4.1121e-18
-4.11224e-18
-4.1117e-18
-4.11177e-18
-4.11159e-18
-4.11122e-18
-4.11132e-18
-4.11146e-18
-4.11144e-18
-4.11042e-18
-4.1105e-18
-4.11064e-18
-4.11064e-18
-4.11049e-18
-4.11064e-18
-4.11052e-18
-4.11011e-18
-4.10997e-18
-4.10927e-18
-4.10895e-18
-4.10895e-18
-4.10967e-18
-4.11013e-18
-4.11013e-18
-4.11014e-18
-4.10978e-18
-4.11018e-18
-4.11024e-18
-4.10981e-18
-4.1099e-18
-4.1097e-18
-4.10933e-18
-4.10939e-18
-4.10942e-18
-4.10931e-18
-4.10918e-18
-4.10909e-18
-4.1084e-18
-4.10712e-18
-4.10836e-18
-4.10856e-18
-4.10896e-18
-4.10696e-18
-4.107e-18
-4.10809e-18
-4.10831e-18
-4.10874e-18
-4.10769e-18
-4.10791e-18
-4.10826e-18
-4.10816e-18
-4.10851e-18
-4.10881e-18
-4.10905e-18
-4.10874e-18
-4.10876e-18
-4.10852e-18
-4.10829e-18
-4.10843e-18
-4.10672e-18
-4.10782e-18
-4.1082e-18
-4.10813e-18
-4.10787e-18
-4.10783e-18
-4.10638e-18
-4.10591e-18
-4.1056e-18
-4.10559e-18
-4.10512e-18
-4.10679e-18
-4.10724e-18
-4.10694e-18
-4.10707e-18
-4.1073e-18
-4.1076e-18
-4.10561e-18
-4.10584e-18
-4.10576e-18
-4.10564e-18
-4.10536e-18
-4.10559e-18
-4.1049e-18
-4.10328e-18
-4.10356e-18
-4.10322e-18
-4.10359e-18
-4.10284e-18
-4.10081e-18
-4.10117e-18
-4.10102e-18
-4.10016e-18
-4.1002e-18
-4.09799e-18
-4.09858e-18
-4.09822e-18
-4.0987e-18
-4.09869e-18
-4.09853e-18
-4.09836e-18
-4.09809e-18
-4.0988e-18
-4.09858e-18
-4.09921e-18
-4.09974e-18
-4.09761e-18
-4.09674e-18
-4.09702e-18
-4.09623e-18
-4.09699e-18
-4.09724e-18
-4.09521e-18
-4.09766e-18
-4.09832e-18
-4.09835e-18
-4.09725e-18
-4.09933e-18
-4.09883e-18
-4.09831e-18
-4.09802e-18
-4.09686e-18
-4.09667e-18
-4.09633e-18
-4.09626e-18
-4.09489e-18
-4.09532e-18
-4.09623e-18
-4.09661e-18
-4.09494e-18
-4.09537e-18
-4.09501e-18
-4.09477e-18
-4.09238e-18
-4.0908e-18
-4.09161e-18
-4.0924e-18
-4.093e-18
-4.09361e-18
-4.09149e-18
-4.09179e-18
-4.08987e-18
-4.09046e-18
-4.0882e-18
-4.08853e-18
-4.08453e-18
-4.08665e-18
-4.08593e-18
-4.08582e-18
-4.08574e-18
-4.08492e-18
-4.08698e-18
-4.08755e-18
-4.08668e-18
-4.08843e-18
-4.08853e-18
-4.08844e-18
-4.08801e-18
-4.0858e-18
-4.08503e-18
-4.08559e-18
-4.08364e-18
-4.08164e-18
-4.07991e-18
-4.08348e-18
-4.08421e-18
-4.08355e-18
-4.08305e-18
-4.08132e-18
-4.08054e-18
-4.07972e-18
-4.08634e-18
-4.08744e-18
-4.0844e-18
-4.08352e-18
-4.08306e-18
-4.0819e-18
-4.08155e-18
-4.08126e-18
-4.08228e-18
-4.08163e-18
-4.08193e-18
-4.08289e-18
-4.07926e-18
-4.07722e-18
-4.07572e-18
-4.07187e-18
-4.07054e-18
-4.06865e-18
-4.06864e-18
-4.07139e-18
-4.07224e-18
-4.06907e-18
-4.06828e-18
-4.06883e-18
-4.06636e-18
-4.06479e-18
-4.06473e-18
-4.06527e-18
-4.06229e-18
-4.06198e-18
-4.06048e-18
-4.05937e-18
-4.05846e-18
-4.05715e-18
-4.05431e-18
-4.05773e-18
-4.05726e-18
-4.05686e-18
-4.05246e-18
-4.04753e-18
-4.04768e-18
-4.05526e-18
-4.05515e-18
-4.05559e-18
-4.05428e-18
-4.05351e-18
-4.05399e-18
-4.05404e-18
-4.05415e-18
-4.05503e-18
-4.0601e-18
-4.06088e-18
-4.05841e-18
-4.05658e-18
-4.05748e-18
-4.05885e-18
-4.05903e-18
-4.05807e-18
-4.05946e-18
-4.05941e-18
-4.06286e-18
-4.06051e-18
-4.05932e-18
-4.06056e-18
-4.05444e-18
-4.05102e-18
-4.0499e-18
-4.05234e-18
-4.05183e-18
-4.0513e-18
-4.05057e-18
-4.04914e-18
-4.04546e-18
-4.04701e-18
-4.04554e-18
-4.04403e-18
-4.04048e-18
-4.03553e-18
-4.03058e-18
-4.0296e-18
-4.03059e-18
-4.02669e-18
-4.02674e-18
-4.02773e-18
-4.02371e-18
-4.02662e-18
-4.02783e-18
-4.04095e-18
-4.03301e-18
-4.0238e-18
-4.02253e-18
-4.02241e-18
-4.02843e-18
-4.02811e-18
-4.02781e-18
-4.03769e-18
-4.03092e-18
-4.02253e-18
-4.0138e-18
-4.01622e-18
-4.01608e-18
-4.02259e-18
-4.03222e-18
-4.03196e-18
-4.04118e-18
-4.04873e-18
-4.04663e-18
-4.04482e-18
-4.04409e-18
-4.04515e-18
-4.04446e-18
-4.04321e-18
-4.04481e-18
-4.04775e-18
-4.04629e-18
-4.02935e-18
-4.02596e-18
-4.02423e-18
-4.02006e-18
-4.01036e-18
-4.01945e-18
-4.02284e-18
-4.02812e-18
-4.03091e-18
-4.02775e-18
-4.00615e-18
-4.00439e-18
-4.00106e-18
-4.00165e-18
-4.00167e-18
-3.99729e-18
-3.99707e-18
-4.00245e-18
-3.99952e-18
-3.99925e-18
-4.00673e-18
-4.00497e-18
-4.00391e-18
-4.00017e-18
-3.99902e-18
-3.99842e-18
-3.99771e-18
-3.99668e-18
-3.99701e-18
-3.99762e-18
-4.00024e-18
-4.00175e-18
-4.00489e-18
-3.99375e-18
-3.99712e-18
-3.99772e-18
-4.00044e-18
-4.00545e-18
-4.02221e-18
-4.02285e-18
-4.02308e-18
-4.00677e-18
-3.9963e-18
-3.99493e-18
-3.99353e-18
-3.99312e-18
-3.99615e-18
-3.99762e-18
-3.99851e-18
-3.99018e-18
-3.99233e-18
-3.9952e-18
-3.9977e-18
-3.98867e-18
-3.98582e-18
-3.97209e-18
-3.96711e-18
-3.96559e-18
-3.96332e-18
-3.95608e-18
-3.9602e-18
-3.9588e-18
-3.95548e-18
-3.95801e-18
-3.957e-18
-3.95467e-18
-3.95736e-18
-3.95749e-18
-3.95633e-18
-3.95544e-18
-3.96327e-18
-3.95135e-18
-3.95414e-18
-3.95098e-18
-3.95192e-18
-3.95067e-18
-3.95104e-18
-3.94912e-18
-3.94439e-18
-3.94261e-18
-3.93704e-18
-3.93381e-18
-3.94025e-18
-3.93906e-18
-3.92923e-18
-3.90944e-18
-3.91091e-18
-3.91588e-18
-3.91183e-18
-3.90174e-18
-3.89524e-18
-3.89017e-18
-3.88856e-18
-3.87689e-18
-3.8718e-18
-3.86393e-18
-3.85322e-18
-3.84703e-18
-3.84522e-18
-3.84747e-18
-3.84987e-18
-3.85096e-18
-3.82925e-18
-3.82828e-18
-3.82953e-18
-3.83136e-18
-3.83455e-18
-3.84072e-18
-3.833e-18
-3.81351e-18
-3.82297e-18
-3.82111e-18
-3.84053e-18
-3.82845e-18
-3.83005e-18
-3.83196e-18
-3.8335e-18
-3.83821e-18
-3.83115e-18
-3.8121e-18
-3.79288e-18
-3.77463e-18
-3.77122e-18
-3.76779e-18
-3.76321e-18
-3.76167e-18
-3.76029e-18
-3.76069e-18
-3.7405e-18
-3.75745e-18
-3.75985e-18
-3.7483e-18
-3.74501e-18
-3.74522e-18
-3.7269e-18
-3.72711e-18
-3.71487e-18
-3.71599e-18
-3.71971e-18
-3.72185e-18
-3.71278e-18
-3.70782e-18
-3.70726e-18
-3.71379e-18
-3.71259e-18
-3.71103e-18
-3.71015e-18
-3.70927e-18
-3.71957e-18
-3.7255e-18
-3.72599e-18
-3.72178e-18
-3.72807e-18
-3.69433e-18
-3.69263e-18
-3.67868e-18
-3.68128e-18
-3.68219e-18
-3.68532e-18
-3.66183e-18
-3.65702e-18
-3.65192e-18
-3.65428e-18
-3.64104e-18
-3.62947e-18
-3.62714e-18
-3.62554e-18
-3.62284e-18
-3.61702e-18
-3.62229e-18
-3.61392e-18
-3.60346e-18
-3.59414e-18
-3.58838e-18
-3.59262e-18
-3.58374e-18
-3.56813e-18
-3.52938e-18
-3.52066e-18
-3.50753e-18
-3.51155e-18
-3.48525e-18
-3.4887e-18
-3.50168e-18
-3.50677e-18
-3.50678e-18
-3.48479e-18
-3.46027e-18
-3.44752e-18
-3.44287e-18
-3.43368e-18
-3.40318e-18
-3.38255e-18
-3.38225e-18
-3.38102e-18
-3.37876e-18
-3.38362e-18
-3.3912e-18
-3.37946e-18
-3.38376e-18
-3.34893e-18
-3.34172e-18
-3.37265e-18
-3.36454e-18
-3.35644e-18
-3.35313e-18
-3.33781e-18
-3.34443e-18
-3.3311e-18
-3.29572e-18
-3.29676e-18
-3.29256e-18
-3.29953e-18
-3.23177e-18
-3.23864e-18
-3.19988e-18
-3.18049e-18
-3.15873e-18
-3.16949e-18
-3.18019e-18
-3.1877e-18
-3.19434e-18
-3.16777e-18
-3.17683e-18
-3.17071e-18
-3.16335e-18
-3.10653e-18
-3.10833e-18
-3.09271e-18
-3.10228e-18
-3.05564e-18
-3.06223e-18
-3.04904e-18
-3.04711e-18
-3.03408e-18
-3.03826e-18
-3.04205e-18
-3.04351e-18
-3.04737e-18
-3.04303e-18
-3.09502e-18
-3.08658e-18
-3.15608e-18
-3.14593e-18
-3.11293e-18
-3.11372e-18
-3.08236e-18
-3.0011e-18
-2.93042e-18
-2.93897e-18
-2.94826e-18
-2.97403e-18
-2.9198e-18
-2.91414e-18
-2.89493e-18
-2.89161e-18
-2.76653e-18
-2.7782e-18
-2.77516e-18
-2.75064e-18
-2.77269e-18
-2.70649e-18
-2.68091e-18
-2.6257e-18
-2.56264e-18
-2.54111e-18
-2.55326e-18
-2.5777e-18
-2.64351e-18
-2.63277e-18
-2.48644e-18
-2.51239e-18
-2.5257e-18
-2.44738e-18
-2.38499e-18
-2.41062e-18
-2.38191e-18
-2.36824e-18
-2.33901e-18
-2.33438e-18
-2.31042e-18
-2.31849e-18
-2.3218e-18
-2.26382e-18
-2.20798e-18
-2.13965e-18
-2.17576e-18
-2.1556e-18
-2.12063e-18
-2.05797e-18
-2.05755e-18
-2.08311e-18
-2.15094e-18
-2.15e-18
-2.14286e-18
-2.11204e-18
-2.1241e-18
-2.06585e-18
-2.04735e-18
-2.04976e-18
-2.10232e-18
-2.11739e-18
-2.1604e-18
-2.03984e-18
-2.05351e-18
-2.11475e-18
-2.09845e-18
-2.08142e-18
-2.06202e-18
-2.03574e-18
-2.0153e-18
-2.00715e-18
-1.98465e-18
-1.96546e-18
-1.96645e-18
-1.96804e-18
-1.9366e-18
-1.84845e-18
-1.85696e-18
-1.87991e-18
-1.83129e-18
-1.80721e-18
-1.82787e-18
-1.8485e-18
-1.8494e-18
-1.85937e-18
-1.82767e-18
-1.82193e-18
-1.76623e-18
-1.77751e-18
-1.70582e-18
-1.7849e-18
-1.85492e-18
-1.78098e-18
-1.93133e-18
-1.88267e-18
-1.90747e-18
-1.8769e-18
-1.79315e-18
-1.79773e-18
-1.84957e-18
-1.86315e-18
-1.87726e-18
-1.85291e-18
-1.93349e-18
-1.93442e-18
-1.93522e-18
-1.91635e-18
-1.93372e-18
-1.86743e-18
-1.84522e-18
-1.82133e-18
-1.82058e-18
-1.82176e-18
-1.82898e-18
-1.76816e-18
-1.68796e-18
-1.70303e-18
-1.6997e-18
-1.708e-18
-1.71552e-18
-1.85551e-18
-1.8588e-18
-1.84319e-18
-1.84008e-18
-1.79898e-18
-1.76927e-18
-1.73647e-18
-1.49753e-18
-1.54908e-18
-1.54689e-18
-1.53982e-18
-1.38052e-18
-1.36733e-18
-1.36907e-18
-1.22444e-18
-1.25479e-18
-1.17309e-18
-1.13755e-18
-1.14635e-18
-1.10452e-18
-1.07108e-18
-1.10557e-18
-1.09847e-18
-1.17341e-18
-1.02829e-18
-1.02784e-18
-7.80388e-19
-7.11539e-19
-5.00467e-19
-5.18712e-19
-5.16457e-19
-5.30687e-19
-6.13856e-19
-6.21186e-19
-5.51935e-19
-5.49169e-19
-5.55982e-19
-4.7339e-19
-4.03742e-19
-4.04891e-19
-1.75001e-19
-2.11544e-19
-1.97893e-19
-1.9346e-19
-1.86937e-19
-1.21508e-19
-1.29548e-19
-1.58352e-19
)
;

boundaryField
{
    INLET
    {
        type            cyclic;
        value           nonuniform List<scalar> 
1025
(
-1.29727e-08
-3.90605e-08
-6.48142e-08
-8.78144e-08
-1.05479e-07
-1.18171e-07
-1.27514e-07
-1.34772e-07
-1.40725e-07
-1.4581e-07
-1.50313e-07
-1.54375e-07
-1.5812e-07
-1.61616e-07
-1.64915e-07
-1.68053e-07
-1.71064e-07
-1.73968e-07
-1.76777e-07
-1.79515e-07
-1.8218e-07
-1.84798e-07
-1.87364e-07
-1.89895e-07
-1.92386e-07
-1.94852e-07
-1.9727e-07
-1.99707e-07
-2.02076e-07
-2.0447e-07
-2.06848e-07
-2.09163e-07
-2.1156e-07
-2.13899e-07
-2.16229e-07
-2.18551e-07
-2.20866e-07
-2.23225e-07
-2.25582e-07
-2.27886e-07
-2.30239e-07
-2.32592e-07
-2.34945e-07
-2.373e-07
-2.39658e-07
-2.42069e-07
-2.44434e-07
-2.46803e-07
-2.49229e-07
-2.51662e-07
-2.54101e-07
-2.56496e-07
-2.59003e-07
-2.61413e-07
-2.63938e-07
-2.66473e-07
-2.68964e-07
-2.71466e-07
-2.74033e-07
-2.76611e-07
-2.79201e-07
-2.81804e-07
-2.8442e-07
-2.87048e-07
-2.89746e-07
-2.92402e-07
-2.95129e-07
-2.97814e-07
-3.00628e-07
-3.03344e-07
-3.06189e-07
-3.08937e-07
-3.11816e-07
-3.14713e-07
-3.17511e-07
-3.20501e-07
-3.23393e-07
-3.26421e-07
-3.2935e-07
-3.32417e-07
-3.35384e-07
-3.3855e-07
-3.41557e-07
-3.44765e-07
-3.47874e-07
-3.51064e-07
-3.54276e-07
-3.5751e-07
-3.60828e-07
-3.64108e-07
-3.6741e-07
-3.70797e-07
-3.74209e-07
-3.77645e-07
-3.81105e-07
-3.84654e-07
-3.88101e-07
-3.917e-07
-3.95326e-07
-3.98914e-07
-4.02592e-07
-4.06298e-07
-4.10096e-07
-4.13791e-07
-4.17712e-07
-4.21461e-07
-4.25373e-07
-4.29381e-07
-4.33284e-07
-4.37283e-07
-4.41381e-07
-4.45373e-07
-4.49601e-07
-4.53723e-07
-4.57946e-07
-4.622e-07
-4.66487e-07
-4.70806e-07
-4.75229e-07
-4.79614e-07
-4.84104e-07
-4.88629e-07
-4.93188e-07
-4.97782e-07
-5.02484e-07
-5.07149e-07
-5.1185e-07
-5.1666e-07
-5.21582e-07
-5.26392e-07
-5.31315e-07
-5.3635e-07
-5.41424e-07
-5.46462e-07
-5.51614e-07
-5.56807e-07
-5.62039e-07
-5.67389e-07
-5.72702e-07
-5.78135e-07
-5.83531e-07
-5.89127e-07
-5.94687e-07
-6.00289e-07
-6.06015e-07
-6.11704e-07
-6.17519e-07
-6.23378e-07
-6.29364e-07
-6.35232e-07
-6.4131e-07
-6.47435e-07
-6.53608e-07
-6.59828e-07
-6.66096e-07
-6.72412e-07
-6.78861e-07
-6.85275e-07
-6.9191e-07
-6.98424e-07
-7.0516e-07
-7.11948e-07
-7.18702e-07
-7.25507e-07
-7.3254e-07
-7.39538e-07
-7.46591e-07
-7.53786e-07
-7.61037e-07
-7.67892e-07
-7.75613e-07
-7.83943e-07
-7.90509e-07
-7.98039e-07
-8.05627e-07
-8.14202e-07
-8.20978e-07
-8.29677e-07
-8.37504e-07
-8.45389e-07
-8.53333e-07
-8.61335e-07
-8.70359e-07
-8.78489e-07
-8.86678e-07
-8.95904e-07
-9.04223e-07
-9.12601e-07
-9.21041e-07
-9.30537e-07
-9.4011e-07
-9.47745e-07
-9.58462e-07
-9.6622e-07
-9.7709e-07
-9.84973e-07
-9.95998e-07
-1.00401e-06
-1.01519e-06
-1.02437e-06
-1.03361e-06
-1.04398e-06
-1.05442e-06
-1.06495e-06
-1.07448e-06
-1.08516e-06
-1.09591e-06
-1.10566e-06
-1.11766e-06
-1.12756e-06
-1.13863e-06
-1.14979e-06
-1.15991e-06
-1.17234e-06
-1.18374e-06
-1.19409e-06
-1.20565e-06
-1.21844e-06
-1.22902e-06
-1.24199e-06
-1.2539e-06
-1.26473e-06
-1.27796e-06
-1.29013e-06
-1.30238e-06
-1.31591e-06
-1.32715e-06
-1.34086e-06
-1.35347e-06
-1.36738e-06
-1.37896e-06
-1.39306e-06
-1.40726e-06
-1.42034e-06
-1.4335e-06
-1.44675e-06
-1.46135e-06
-1.47606e-06
-1.4896e-06
-1.50451e-06
-1.51825e-06
-1.53337e-06
-1.5473e-06
-1.56393e-06
-1.57677e-06
-1.59361e-06
-1.60795e-06
-1.62371e-06
-1.63957e-06
-1.65422e-06
-1.67164e-06
-1.68649e-06
-1.7028e-06
-1.71922e-06
-1.73712e-06
-1.75241e-06
-1.76917e-06
-1.78605e-06
-1.80304e-06
-1.82014e-06
-1.83737e-06
-1.85612e-06
-1.87359e-06
-1.89118e-06
-1.90888e-06
-1.9267e-06
-1.94609e-06
-1.96416e-06
-1.98235e-06
-2.00213e-06
-2.02056e-06
-2.04061e-06
-2.0593e-06
-2.07811e-06
-2.09855e-06
-2.11913e-06
-2.13833e-06
-2.15918e-06
-2.18017e-06
-2.19977e-06
-2.22103e-06
-2.24244e-06
-2.264e-06
-2.28412e-06
-2.30595e-06
-2.32792e-06
-2.35004e-06
-2.3723e-06
-2.39472e-06
-2.41727e-06
-2.43998e-06
-2.46283e-06
-2.48583e-06
-2.51063e-06
-2.53228e-06
-2.55739e-06
-2.581e-06
-2.60476e-06
-2.63035e-06
-2.65442e-06
-2.67865e-06
-2.70473e-06
-2.72927e-06
-2.75569e-06
-2.78055e-06
-2.8073e-06
-2.83248e-06
-2.85957e-06
-2.88684e-06
-2.91251e-06
-2.94011e-06
-2.96789e-06
-2.99586e-06
-3.02219e-06
-3.05231e-06
-3.07898e-06
-3.10764e-06
-3.13833e-06
-3.16551e-06
-3.19658e-06
-3.22411e-06
-3.25555e-06
-3.28532e-06
-3.31526e-06
-3.34539e-06
-3.37761e-06
-3.40813e-06
-3.43882e-06
-3.47164e-06
-3.50466e-06
-3.53399e-06
-3.56937e-06
-3.60104e-06
-3.63289e-06
-3.66692e-06
-3.70116e-06
-3.73562e-06
-3.76827e-06
-3.80516e-06
-3.83823e-06
-3.87352e-06
-3.90903e-06
-3.94475e-06
-3.98069e-06
-4.01685e-06
-4.05322e-06
-4.0919e-06
-4.12662e-06
-4.16576e-06
-4.20302e-06
-4.24263e-06
-4.28034e-06
-4.31827e-06
-4.35859e-06
-4.39698e-06
-4.43777e-06
-4.47881e-06
-4.5179e-06
-4.55942e-06
-4.59897e-06
-4.64319e-06
-4.68322e-06
-4.72573e-06
-4.76848e-06
-4.81148e-06
-4.85474e-06
-4.89825e-06
-4.94201e-06
-4.98833e-06
-5.0303e-06
-5.07715e-06
-5.12195e-06
-5.16934e-06
-5.21467e-06
-5.26025e-06
-5.30847e-06
-5.35458e-06
-5.40335e-06
-5.4524e-06
-5.49933e-06
-5.54894e-06
-5.59883e-06
-5.64902e-06
-5.69949e-06
-5.7478e-06
-5.80131e-06
-5.85265e-06
-5.90429e-06
-5.95622e-06
-6.00844e-06
-6.06095e-06
-6.1163e-06
-6.16942e-06
-6.22539e-06
-6.27912e-06
-6.33572e-06
-6.39006e-06
-6.44729e-06
-6.50225e-06
-6.56273e-06
-6.61832e-06
-6.67684e-06
-6.7357e-06
-6.79488e-06
-6.8544e-06
-6.91424e-06
-6.97442e-06
-7.03493e-06
-7.09848e-06
-7.15967e-06
-7.2212e-06
-7.28581e-06
-7.34803e-06
-7.41335e-06
-7.47904e-06
-7.5423e-06
-7.6087e-06
-7.67266e-06
-7.74261e-06
-7.80728e-06
-7.87799e-06
-7.94338e-06
-8.01486e-06
-8.08386e-06
-8.15034e-06
-8.22587e-06
-8.29309e-06
-8.36651e-06
-8.44034e-06
-8.51163e-06
-8.58329e-06
-8.6583e-06
-8.73373e-06
-8.80956e-06
-8.88581e-06
-8.95945e-06
-9.03953e-06
-9.11397e-06
-9.19491e-06
-9.27322e-06
-9.35195e-06
-9.43419e-06
-9.51067e-06
-9.59688e-06
-9.67733e-06
-9.75819e-06
-9.84262e-06
-9.9275e-06
-1.00097e-05
-1.00986e-05
-1.01817e-05
-1.02716e-05
-1.03555e-05
-1.04464e-05
-1.05344e-05
-1.0623e-05
-1.0712e-05
-1.08047e-05
-1.0898e-05
-1.09884e-05
-1.10826e-05
-1.1174e-05
-1.12692e-05
-1.13682e-05
-1.14611e-05
-1.15578e-05
-1.1655e-05
-1.17527e-05
-1.18543e-05
-1.1953e-05
-1.20522e-05
-1.21554e-05
-1.22592e-05
-1.236e-05
-1.24648e-05
-1.25666e-05
-1.2676e-05
-1.27789e-05
-1.28895e-05
-1.29934e-05
-1.31051e-05
-1.32137e-05
-1.33229e-05
-1.34363e-05
-1.35502e-05
-1.36611e-05
-1.37726e-05
-1.38919e-05
-1.40045e-05
-1.4125e-05
-1.42388e-05
-1.43569e-05
-1.44792e-05
-1.45985e-05
-1.47183e-05
-1.48426e-05
-1.49637e-05
-1.50891e-05
-1.52114e-05
-1.5342e-05
-1.54656e-05
-1.55936e-05
-1.57261e-05
-1.58515e-05
-1.59854e-05
-1.6116e-05
-1.62512e-05
-1.63831e-05
-1.65157e-05
-1.66569e-05
-1.67908e-05
-1.69294e-05
-1.70687e-05
-1.72086e-05
-1.73493e-05
-1.74947e-05
-1.76368e-05
-1.77796e-05
-1.79271e-05
-1.80754e-05
-1.82203e-05
-1.83701e-05
-1.85247e-05
-1.86718e-05
-1.88238e-05
-1.89807e-05
-1.91342e-05
-1.92884e-05
-1.94476e-05
-1.96076e-05
-1.97641e-05
-1.99257e-05
-2.0088e-05
-2.02511e-05
-2.04194e-05
-2.05798e-05
-2.07496e-05
-2.09203e-05
-2.10875e-05
-2.12598e-05
-2.14286e-05
-2.1607e-05
-2.17775e-05
-2.19576e-05
-2.21342e-05
-2.23116e-05
-2.24898e-05
-2.26779e-05
-2.28534e-05
-2.30433e-05
-2.32296e-05
-2.33985e-05
-2.3614e-05
-2.37846e-05
-2.40022e-05
-2.41745e-05
-2.43475e-05
-2.4568e-05
-2.47896e-05
-2.49654e-05
-2.5142e-05
-2.53665e-05
-2.55923e-05
-2.57716e-05
-2.59993e-05
-2.61804e-05
-2.63621e-05
-2.66411e-05
-2.68249e-05
-2.70095e-05
-2.72434e-05
-2.74786e-05
-2.7715e-05
-2.79033e-05
-2.81418e-05
-2.83319e-05
-2.85724e-05
-2.88141e-05
-2.9057e-05
-2.9251e-05
-2.94959e-05
-2.97421e-05
-2.99895e-05
-3.01873e-05
-3.04368e-05
-3.06875e-05
-3.09394e-05
-3.11925e-05
-3.14468e-05
-3.16506e-05
-3.1907e-05
-3.22168e-05
-3.24236e-05
-3.26837e-05
-3.2945e-05
-3.32074e-05
-3.34712e-05
-3.37361e-05
-3.39489e-05
-3.42694e-05
-3.4538e-05
-3.48078e-05
-3.50788e-05
-3.53511e-05
-3.56245e-05
-3.59537e-05
-3.61753e-05
-3.65073e-05
-3.6731e-05
-3.70657e-05
-3.73469e-05
-3.76293e-05
-3.79129e-05
-3.82536e-05
-3.8484e-05
-3.88275e-05
-3.91727e-05
-3.94066e-05
-3.97547e-05
-4.00476e-05
-4.03988e-05
-4.06373e-05
-4.09914e-05
-4.13471e-05
-4.16469e-05
-4.19479e-05
-4.23083e-05
-4.26121e-05
-4.29172e-05
-4.32822e-05
-4.36489e-05
-4.39584e-05
-4.42691e-05
-4.46404e-05
-4.50135e-05
-4.53287e-05
-4.57049e-05
-4.60229e-05
-4.64024e-05
-4.67836e-05
-4.7106e-05
-4.74905e-05
-4.78157e-05
-4.82034e-05
-4.85928e-05
-4.8984e-05
-4.93153e-05
-4.97716e-05
-5.01061e-05
-5.04418e-05
-5.09036e-05
-5.12425e-05
-5.17084e-05
-5.20505e-05
-5.2457e-05
-5.28654e-05
-5.32755e-05
-5.36874e-05
-5.41011e-05
-5.44525e-05
-5.49338e-05
-5.53529e-05
-5.57738e-05
-5.61964e-05
-5.66209e-05
-5.70472e-05
-5.74752e-05
-5.79708e-05
-5.83369e-05
-5.88364e-05
-5.9272e-05
-5.97094e-05
-6.01486e-05
-6.06565e-05
-6.10996e-05
-6.15446e-05
-6.20588e-05
-6.25077e-05
-6.29585e-05
-6.3411e-05
-6.39335e-05
-6.44584e-05
-6.49171e-05
-6.53775e-05
-6.59088e-05
-6.63732e-05
-6.69088e-05
-6.73772e-05
-6.79172e-05
-6.84596e-05
-6.89341e-05
-6.94808e-05
-6.99594e-05
-7.05105e-05
-7.10639e-05
-7.16198e-05
-7.21066e-05
-7.26668e-05
-7.32294e-05
-7.37944e-05
-7.42896e-05
-7.48589e-05
-7.55031e-05
-7.60049e-05
-7.65813e-05
-7.71601e-05
-7.77414e-05
-7.83249e-05
-7.89109e-05
-7.94993e-05
-8.009e-05
-8.06831e-05
-8.12785e-05
-8.18764e-05
-8.25516e-05
-8.31546e-05
-8.37599e-05
-8.43676e-05
-8.49777e-05
-8.56662e-05
-8.62815e-05
-8.69755e-05
-8.75192e-05
-8.82184e-05
-8.89206e-05
-8.95484e-05
-9.01786e-05
-9.08889e-05
-9.16022e-05
-9.22403e-05
-9.28807e-05
-9.36021e-05
-9.43264e-05
-9.49747e-05
-9.57837e-05
-9.63582e-05
-9.71731e-05
-9.78321e-05
-9.85733e-05
-9.93176e-05
-9.99843e-05
-0.000100815
-0.000101487
-0.000102324
-0.000103001
-0.000103763
-0.000104527
-0.000105295
-0.000106148
-0.000106839
-0.000107615
-0.000108477
-0.00010926
-0.000110045
-0.000110834
-0.000111709
-0.000112419
-0.000113301
-0.000114185
-0.000114989
-0.000115796
-0.000116606
-0.000117503
-0.000118405
-0.000119224
-0.000120132
-0.000120957
-0.000121872
-0.00012279
-0.000123625
-0.000124549
-0.00012539
-0.000126409
-0.000127257
-0.000128195
-0.000129137
-0.000130082
-0.000131031
-0.000131983
-0.00013285
-0.000133898
-0.00013486
-0.000135826
-0.000136796
-0.000137859
-0.000138745
-0.000139816
-0.000140799
-0.000141787
-0.000142868
-0.000143863
-0.00014486
-0.000145954
-0.000147051
-0.000148059
-0.000149072
-0.00015018
-0.000151292
-0.000152315
-0.000153435
-0.000154559
-0.000155593
-0.000156819
-0.00015786
-0.000159
-0.000160143
-0.000161195
-0.000162441
-0.000163597
-0.000164756
-0.000165918
-0.000167085
-0.000168353
-0.000169431
-0.000170706
-0.000171889
-0.000173173
-0.000174364
-0.000175558
-0.000176855
-0.000178057
-0.000179264
-0.000180672
-0.000181886
-0.000183105
-0.000184427
-0.000185753
-0.000187083
-0.000188418
-0.000189657
-0.000191
-0.000192448
-0.000193699
-0.000195055
-0.000196516
-0.000197779
-0.00019925
-0.000200521
-0.000202
-0.000203484
-0.000204767
-0.00020626
-0.000207758
-0.000209157
-0.00021056
-0.000212071
-0.000213587
-0.000215003
-0.000216527
-0.000217951
-0.000219485
-0.000221128
-0.000222565
-0.000224113
-0.000225664
-0.00022722
-0.000228781
-0.000230346
-0.000231915
-0.000233488
-0.000235174
-0.000236757
-0.000238344
-0.000240043
-0.000241639
-0.000243348
-0.000244953
-0.000246671
-0.000248284
-0.000250012
-0.000251743
-0.00025337
-0.000255221
-0.000256856
-0.000258716
-0.00026036
-0.000262119
-0.000263882
-0.000265761
-0.000267534
-0.00026931
-0.000271091
-0.000272989
-0.000274779
-0.000276572
-0.000278597
-0.000280286
-0.000282206
-0.000284131
-0.00028606
-0.000287994
-0.000289818
-0.00029176
-0.000293706
-0.000295773
-0.000297612
-0.000299572
-0.000301651
-0.000303619
-0.00030559
-0.000307683
-0.000309662
-0.000311646
-0.000313751
-0.00031586
-0.000317855
-0.000319973
-0.000322094
-0.0003241
-0.000326348
-0.000328362
-0.000330617
-0.000332638
-0.000334902
-0.000337049
-0.0003392
-0.000341355
-0.000343633
-0.000345795
-0.00034808
-0.000350248
-0.00035254
-0.000354836
-0.000357135
-0.000359316
-0.000361621
-0.000364051
-0.00036624
-0.000368554
-0.000370994
-0.000373191
-0.000375636
-0.000378085
-0.000380412
-0.000382742
-0.000385198
-0.000387657
-0.000389994
-0.000392457
-0.000394922
-0.000397389
-0.000399733
-0.000402329
-0.000404802
-0.000407277
-0.000409878
-0.000412356
-0.000414835
-0.000417441
-0.000419921
-0.00042253
-0.000425012
-0.00042775
-0.000430234
-0.000432845
-0.000435457
-0.00043807
-0.00044081
-0.000443423
-0.000445908
-0.000448777
-0.000451389
-0.000454001
-0.000456741
-0.00045948
-0.000462089
-0.000464827
-0.000467692
-0.000470298
-0.000473032
-0.000475893
-0.000478494
-0.000481352
-0.000484208
-0.000486932
-0.000489784
-0.000492503
-0.000495349
-0.000498193
-0.000500903
-0.000503871
-0.000506705
-0.000509535
-0.000512361
-0.000515315
-0.000518133
-0.000520946
-0.000523886
-0.000526822
-0.000529752
-0.000532545
-0.000535597
-0.000538378
-0.000541419
-0.00054432
-0.000547215
-0.000550103
-0.000553117
-0.000556124
-0.000558991
-0.000561982
-0.000564966
-0.000567941
-0.000570908
-0.000573866
-0.000576815
-0.000579887
-0.000582817
-0.00058587
-0.000588779
-0.000591811
-0.000594832
-0.000597842
-0.000600706
-0.000603826
-0.000606799
-0.000609894
-0.000612707
-0.00061591
-0.00061883
-0.000621736
-0.000624895
-0.000627771
-0.000630765
-0.000633878
)
;
    }
    OUTLET
    {
        type            cyclic;
        value           nonuniform List<scalar> 
1025
(
1.29727e-08
3.90605e-08
6.48142e-08
8.78144e-08
1.05479e-07
1.18171e-07
1.27514e-07
1.34772e-07
1.40725e-07
1.4581e-07
1.50313e-07
1.54375e-07
1.5812e-07
1.61616e-07
1.64915e-07
1.68053e-07
1.71064e-07
1.73968e-07
1.76777e-07
1.79515e-07
1.8218e-07
1.84798e-07
1.87364e-07
1.89895e-07
1.92386e-07
1.94852e-07
1.9727e-07
1.99707e-07
2.02076e-07
2.0447e-07
2.06848e-07
2.09163e-07
2.1156e-07
2.13899e-07
2.16229e-07
2.18551e-07
2.20866e-07
2.23225e-07
2.25582e-07
2.27886e-07
2.30239e-07
2.32592e-07
2.34945e-07
2.373e-07
2.39658e-07
2.42069e-07
2.44434e-07
2.46803e-07
2.49229e-07
2.51662e-07
2.54101e-07
2.56496e-07
2.59003e-07
2.61413e-07
2.63938e-07
2.66473e-07
2.68964e-07
2.71466e-07
2.74033e-07
2.76611e-07
2.79201e-07
2.81804e-07
2.8442e-07
2.87048e-07
2.89746e-07
2.92402e-07
2.95129e-07
2.97814e-07
3.00628e-07
3.03344e-07
3.06189e-07
3.08937e-07
3.11816e-07
3.14713e-07
3.17511e-07
3.20501e-07
3.23393e-07
3.26421e-07
3.2935e-07
3.32417e-07
3.35384e-07
3.3855e-07
3.41557e-07
3.44765e-07
3.47874e-07
3.51064e-07
3.54276e-07
3.5751e-07
3.60828e-07
3.64108e-07
3.6741e-07
3.70797e-07
3.74209e-07
3.77645e-07
3.81105e-07
3.84654e-07
3.88101e-07
3.917e-07
3.95326e-07
3.98914e-07
4.02592e-07
4.06298e-07
4.10096e-07
4.13791e-07
4.17712e-07
4.21461e-07
4.25373e-07
4.29381e-07
4.33284e-07
4.37283e-07
4.41381e-07
4.45373e-07
4.49601e-07
4.53723e-07
4.57946e-07
4.622e-07
4.66487e-07
4.70806e-07
4.75229e-07
4.79614e-07
4.84104e-07
4.88629e-07
4.93188e-07
4.97782e-07
5.02484e-07
5.07149e-07
5.1185e-07
5.1666e-07
5.21582e-07
5.26392e-07
5.31315e-07
5.3635e-07
5.41424e-07
5.46462e-07
5.51614e-07
5.56807e-07
5.62039e-07
5.67389e-07
5.72702e-07
5.78135e-07
5.83531e-07
5.89127e-07
5.94687e-07
6.00289e-07
6.06015e-07
6.11704e-07
6.17519e-07
6.23378e-07
6.29364e-07
6.35232e-07
6.4131e-07
6.47435e-07
6.53608e-07
6.59828e-07
6.66096e-07
6.72412e-07
6.78861e-07
6.85275e-07
6.9191e-07
6.98424e-07
7.0516e-07
7.11948e-07
7.18702e-07
7.25507e-07
7.3254e-07
7.39538e-07
7.46591e-07
7.53786e-07
7.61037e-07
7.67892e-07
7.75613e-07
7.83943e-07
7.90509e-07
7.98039e-07
8.05627e-07
8.14202e-07
8.20978e-07
8.29677e-07
8.37504e-07
8.45389e-07
8.53333e-07
8.61335e-07
8.70359e-07
8.78489e-07
8.86678e-07
8.95904e-07
9.04223e-07
9.12601e-07
9.21041e-07
9.30537e-07
9.4011e-07
9.47745e-07
9.58462e-07
9.6622e-07
9.7709e-07
9.84973e-07
9.95998e-07
1.00401e-06
1.01519e-06
1.02437e-06
1.03361e-06
1.04398e-06
1.05442e-06
1.06495e-06
1.07448e-06
1.08516e-06
1.09591e-06
1.10566e-06
1.11766e-06