/*--------------------------------*- C++ -*----------------------------------*\
| =========                 |                                                 |
| \\      /  F ield         | OpenFOAM: The Open Source CFD Toolbox           |
|  \\    /   O peration     | Version:  v1806                                 |
|   \\  /    A nd           | Web:      www.OpenFOAM.com                      |
|    \\/     M anipulation  |                                                 |
\*---------------------------------------------------------------------------*/
FoamFile
{
    version     2.0;
    format      ascii;
    class       volSymmTensorField;
    location    "10000";
    object      turbulenceProperties:R;
}
// * * * * * * * * * * * * * * * * * * * * * * * * * * * * * * * * * * * * * //

dimensions      [0 2 -2 0 0 0 0];


internalField   nonuniform List<symmTensor> 
1025
(
(3.11734e-05 -8.77488e-08 0 3.11734e-05 0 3.11734e-05)
(0.000456989 -7.2948e-06 0 0.000456989 0 0.000456989)
(0.00135249 -6.72496e-05 0 0.00135249 0 0.00135249)
(0.0025027 -0.000298015 0 0.0025027 0 0.0025027)
(0.00354588 -0.000623203 0 0.00354588 0 0.00354588)
(0.00434039 -0.000866614 0 0.00434039 0 0.00434039)
(0.00493143 -0.00101628 0 0.00493143 0 0.00493143)
(0.00538645 -0.00110491 0 0.00538645 0 0.00538645)
(0.00575283 -0.00116019 0 0.00575283 0 0.00575283)
(0.00605962 -0.00119772 0 0.00605962 0 0.00605962)
(0.00632446 -0.00122532 0 0.00632446 0 0.00632446)
(0.00655846 -0.00124701 0 0.00655846 0 0.00655846)
(0.00676893 -0.00126502 0 0.00676893 0 0.00676893)
(0.00696088 -0.00128064 0 0.00696088 0 0.00696088)
(0.00713789 -0.00129471 0 0.00713789 0 0.00713789)
(0.00730259 -0.00130776 0 0.00730259 0 0.00730259)
(0.00745698 -0.00132016 0 0.00745698 0 0.00745698)
(0.00760259 -0.00133217 0 0.00760259 0 0.00760259)
(0.00774065 -0.00134397 0 0.00774065 0 0.00774065)
(0.00787213 -0.00135572 0 0.00787213 0 0.00787213)
(0.00799783 -0.0013675 0 0.00799783 0 0.00799783)
(0.00811841 -0.00137941 0 0.00811841 0 0.00811841)
(0.00823444 -0.00139151 0 0.00823444 0 0.00823444)
(0.00834637 -0.00140383 0 0.00834637 0 0.00834637)
(0.00845461 -0.00141643 0 0.00845461 0 0.00845461)
(0.00855951 -0.00142934 0 0.00855951 0 0.00855951)
(0.00866135 -0.00144257 0 0.00866135 0 0.00866135)
(0.00876041 -0.00145615 0 0.00876041 0 0.00876041)
(0.00885691 -0.0014701 0 0.00885691 0 0.00885691)
(0.00895106 -0.00148443 0 0.00895106 0 0.00895106)
(0.00904304 -0.00149915 0 0.00904304 0 0.00904304)
(0.00913301 -0.00151427 0 0.00913301 0 0.00913301)
(0.00922111 -0.00152979 0 0.00922111 0 0.00922111)
(0.00930749 -0.00154573 0 0.00930749 0 0.00930749)
(0.00939225 -0.00156208 0 0.00939225 0 0.00939225)
(0.0094755 -0.00157886 0 0.0094755 0 0.0094755)
(0.00955734 -0.00159606 0 0.00955734 0 0.00955734)
(0.00963785 -0.00161369 0 0.00963785 0 0.00963785)
(0.00971714 -0.00163175 0 0.00971714 0 0.00971714)
(0.00979526 -0.00165023 0 0.00979526 0 0.00979526)
(0.00987228 -0.00166915 0 0.00987228 0 0.00987228)
(0.00994828 -0.0016885 0 0.00994828 0 0.00994828)
(0.0100233 -0.00170828 0 0.0100233 0 0.0100233)
(0.0100974 -0.00172849 0 0.0100974 0 0.0100974)
(0.0101707 -0.00174913 0 0.0101707 0 0.0101707)
(0.0102431 -0.0017702 0 0.0102431 0 0.0102431)
(0.0103148 -0.00179171 0 0.0103148 0 0.0103148)
(0.0103857 -0.00181364 0 0.0103857 0 0.0103857)
(0.010456 -0.001836 0 0.010456 0 0.010456)
(0.0105256 -0.00185878 0 0.0105256 0 0.0105256)
(0.0105945 -0.00188199 0 0.0105945 0 0.0105945)
(0.0106629 -0.00190563 0 0.0106629 0 0.0106629)
(0.0107308 -0.00192968 0 0.0107308 0 0.0107308)
(0.0107981 -0.00195416 0 0.0107981 0 0.0107981)
(0.0108649 -0.00197906 0 0.0108649 0 0.0108649)
(0.0109312 -0.00200437 0 0.0109312 0 0.0109312)
(0.0109971 -0.0020301 0 0.0109971 0 0.0109971)
(0.0110626 -0.00205624 0 0.0110626 0 0.0110626)
(0.0111276 -0.00208279 0 0.0111276 0 0.0111276)
(0.0111923 -0.00210976 0 0.0111923 0 0.0111923)
(0.0112566 -0.00213713 0 0.0112566 0 0.0112566)
(0.0113206 -0.0021649 0 0.0113206 0 0.0113206)
(0.0113843 -0.00219308 0 0.0113843 0 0.0113843)
(0.0114476 -0.00222167 0 0.0114476 0 0.0114476)
(0.0115107 -0.00225065 0 0.0115107 0 0.0115107)
(0.0115734 -0.00228003 0 0.0115734 0 0.0115734)
(0.0116359 -0.00230981 0 0.0116359 0 0.0116359)
(0.0116982 -0.00233998 0 0.0116982 0 0.0116982)
(0.0117602 -0.00237054 0 0.0117602 0 0.0117602)
(0.0118221 -0.00240148 0 0.0118221 0 0.0118221)
(0.0118837 -0.00243282 0 0.0118837 0 0.0118837)
(0.0119451 -0.00246454 0 0.0119451 0 0.0119451)
(0.0120063 -0.00249665 0 0.0120063 0 0.0120063)
(0.0120674 -0.00252913 0 0.0120674 0 0.0120674)
(0.0121283 -0.00256199 0 0.0121283 0 0.0121283)
(0.012189 -0.00259523 0 0.012189 0 0.012189)
(0.0122497 -0.00262885 0 0.0122497 0 0.0122497)
(0.0123101 -0.00266283 0 0.0123101 0 0.0123101)
(0.0123705 -0.00269718 0 0.0123705 0 0.0123705)
(0.0124308 -0.0027319 0 0.0124308 0 0.0124308)
(0.0124909 -0.00276699 0 0.0124909 0 0.0124909)
(0.012551 -0.00280244 0 0.012551 0 0.012551)
(0.012611 -0.00283825 0 0.012611 0 0.012611)
(0.0126708 -0.00287442 0 0.0126708 0 0.0126708)
(0.0127307 -0.00291094 0 0.0127307 0 0.0127307)
(0.0127904 -0.00294782 0 0.0127904 0 0.0127904)
(0.0128501 -0.00298505 0 0.0128501 0 0.0128501)
(0.0129098 -0.00302263 0 0.0129098 0 0.0129098)
(0.0129694 -0.00306056 0 0.0129694 0 0.0129694)
(0.013029 -0.00309883 0 0.013029 0 0.013029)
(0.0130885 -0.00313745 0 0.0130885 0 0.0130885)
(0.0131481 -0.00317641 0 0.0131481 0 0.0131481)
(0.0132076 -0.00321571 0 0.0132076 0 0.0132076)
(0.0132671 -0.00325534 0 0.0132671 0 0.0132671)
(0.0133265 -0.00329531 0 0.0133265 0 0.0133265)
(0.013386 -0.00333561 0 0.013386 0 0.013386)
(0.0134455 -0.00337624 0 0.0134455 0 0.0134455)
(0.013505 -0.00341719 0 0.013505 0 0.013505)
(0.0135646 -0.00345848 0 0.0135646 0 0.0135646)
(0.0136241 -0.00350008 0 0.0136241 0 0.0136241)
(0.0136837 -0.00354202 0 0.0136837 0 0.0136837)
(0.0137433 -0.00358427 0 0.0137433 0 0.0137433)
(0.0138029 -0.00362683 0 0.0138029 0 0.0138029)
(0.0138625 -0.00366971 0 0.0138625 0 0.0138625)
(0.0139223 -0.0037129 0 0.0139223 0 0.0139223)
(0.013982 -0.00375641 0 0.013982 0 0.013982)
(0.0140418 -0.00380023 0 0.0140418 0 0.0140418)
(0.0141017 -0.00384435 0 0.0141017 0 0.0141017)
(0.0141616 -0.00388877 0 0.0141616 0 0.0141616)
(0.0142216 -0.0039335 0 0.0142216 0 0.0142216)
(0.0142816 -0.00397853 0 0.0142816 0 0.0142816)
(0.0143417 -0.00402386 0 0.0143417 0 0.0143417)
(0.0144019 -0.00406948 0 0.0144019 0 0.0144019)
(0.0144622 -0.0041154 0 0.0144622 0 0.0144622)
(0.0145225 -0.00416162 0 0.0145225 0 0.0145225)
(0.0145829 -0.00420812 0 0.0145829 0 0.0145829)
(0.0146434 -0.00425491 0 0.0146434 0 0.0146434)
(0.014704 -0.00430199 0 0.014704 0 0.014704)
(0.0147647 -0.00434935 0 0.0147647 0 0.0147647)
(0.0148255 -0.004397 0 0.0148255 0 0.0148255)
(0.0148864 -0.00444492 0 0.0148864 0 0.0148864)
(0.0149474 -0.00449313 0 0.0149474 0 0.0149474)
(0.0150085 -0.00454161 0 0.0150085 0 0.0150085)
(0.0150697 -0.00459036 0 0.0150697 0 0.0150697)
(0.015131 -0.00463939 0 0.015131 0 0.015131)
(0.0151924 -0.00468869 0 0.0151924 0 0.0151924)
(0.0152539 -0.00473826 0 0.0152539 0 0.0152539)
(0.0153156 -0.00478809 0 0.0153156 0 0.0153156)
(0.0153774 -0.00483819 0 0.0153774 0 0.0153774)
(0.0154392 -0.00488856 0 0.0154392 0 0.0154392)
(0.0155013 -0.00493918 0 0.0155013 0 0.0155013)
(0.0155634 -0.00499007 0 0.0155634 0 0.0155634)
(0.0156257 -0.00504121 0 0.0156257 0 0.0156257)
(0.0156881 -0.0050926 0 0.0156881 0 0.0156881)
(0.0157506 -0.00514426 0 0.0157506 0 0.0157506)
(0.0158132 -0.00519616 0 0.0158132 0 0.0158132)
(0.015876 -0.00524831 0 0.015876 0 0.015876)
(0.015939 -0.00530072 0 0.015939 0 0.015939)
(0.0160021 -0.00535336 0 0.0160021 0 0.0160021)
(0.0160653 -0.00540626 0 0.0160653 0 0.0160653)
(0.0161287 -0.00545939 0 0.0161287 0 0.0161287)
(0.0161922 -0.00551277 0 0.0161922 0 0.0161922)
(0.0162558 -0.00556639 0 0.0162558 0 0.0162558)
(0.0163197 -0.00562024 0 0.0163197 0 0.0163197)
(0.0163836 -0.00567433 0 0.0163836 0 0.0163836)
(0.0164477 -0.00572866 0 0.0164477 0 0.0164477)
(0.016512 -0.00578321 0 0.016512 0 0.016512)
(0.0165764 -0.005838 0 0.0165764 0 0.0165764)
(0.016641 -0.00589301 0 0.016641 0 0.016641)
(0.0167058 -0.00594826 0 0.0167058 0 0.0167058)
(0.0167707 -0.00600373 0 0.0167707 0 0.0167707)
(0.0168358 -0.00605942 0 0.0168358 0 0.0168358)
(0.016901 -0.00611533 0 0.016901 0 0.016901)
(0.0169664 -0.00617146 0 0.0169664 0 0.0169664)
(0.017032 -0.00622782 0 0.017032 0 0.017032)
(0.0170977 -0.00628439 0 0.0170977 0 0.0170977)
(0.0171636 -0.00634117 0 0.0171636 0 0.0171636)
(0.0172297 -0.00639817 0 0.0172297 0 0.0172297)
(0.017296 -0.00645538 0 0.017296 0 0.017296)
(0.0173624 -0.00651281 0 0.0173624 0 0.0173624)
(0.017429 -0.00657043 0 0.017429 0 0.017429)
(0.0174958 -0.00662827 0 0.0174958 0 0.0174958)
(0.0175628 -0.00668631 0 0.0175628 0 0.0175628)
(0.0176299 -0.00674456 0 0.0176299 0 0.0176299)
(0.0176972 -0.00680301 0 0.0176972 0 0.0176972)
(0.0177647 -0.00686165 0 0.0177647 0 0.0177647)
(0.0178324 -0.0069205 0 0.0178324 0 0.0178324)
(0.0179003 -0.00697955 0 0.0179003 0 0.0179003)
(0.0179683 -0.00703879 0 0.0179683 0 0.0179683)
(0.0180366 -0.00709824 0 0.0180366 0 0.0180366)
(0.018105 -0.00715787 0 0.018105 0 0.018105)
(0.0181736 -0.00721767 0 0.0181736 0 0.0181736)
(0.0182424 -0.00727766 0 0.0182424 0 0.0182424)
(0.0183114 -0.00733786 0 0.0183114 0 0.0183114)
(0.0183806 -0.00739825 0 0.0183806 0 0.0183806)
(0.01845 -0.00745882 0 0.01845 0 0.01845)
(0.0185195 -0.00751957 0 0.0185195 0 0.0185195)
(0.0185893 -0.0075805 0 0.0185893 0 0.0185893)
(0.0186593 -0.0076416 0 0.0186593 0 0.0186593)
(0.0187294 -0.00770289 0 0.0187294 0 0.0187294)
(0.0187998 -0.00776437 0 0.0187998 0 0.0187998)
(0.0188703 -0.00782603 0 0.0188703 0 0.0188703)
(0.018941 -0.00788786 0 0.018941 0 0.018941)
(0.019012 -0.00794985 0 0.019012 0 0.019012)
(0.0190831 -0.00801201 0 0.0190831 0 0.0190831)
(0.0191544 -0.00807434 0 0.0191544 0 0.0191544)
(0.019226 -0.00813683 0 0.019226 0 0.019226)
(0.0192977 -0.0081995 0 0.0192977 0 0.0192977)
(0.0193697 -0.00826236 0 0.0193697 0 0.0193697)
(0.0194418 -0.00832537 0 0.0194418 0 0.0194418)
(0.0195142 -0.00838853 0 0.0195142 0 0.0195142)
(0.0195867 -0.00845185 0 0.0195867 0 0.0195867)
(0.0196595 -0.00851534 0 0.0196595 0 0.0196595)
(0.0197324 -0.00857898 0 0.0197324 0 0.0197324)
(0.0198056 -0.00864278 0 0.0198056 0 0.0198056)
(0.019879 -0.00870674 0 0.019879 0 0.019879)
(0.0199525 -0.00877085 0 0.0199525 0 0.0199525)
(0.0200263 -0.00883511 0 0.0200263 0 0.0200263)
(0.0201003 -0.00889953 0 0.0201003 0 0.0201003)
(0.0201746 -0.00896409 0 0.0201746 0 0.0201746)
(0.0202489 -0.00902882 0 0.0202489 0 0.0202489)
(0.0203235 -0.0090937 0 0.0203235 0 0.0203235)
(0.0203984 -0.00915872 0 0.0203984 0 0.0203984)
(0.0204734 -0.00922386 0 0.0204734 0 0.0204734)
(0.0205487 -0.00928915 0 0.0205487 0 0.0205487)
(0.0206241 -0.00935459 0 0.0206241 0 0.0206241)
(0.0206998 -0.00942018 0 0.0206998 0 0.0206998)
(0.0207757 -0.0094859 0 0.0207757 0 0.0207757)
(0.0208518 -0.00955175 0 0.0208518 0 0.0208518)
(0.0209281 -0.00961774 0 0.0209281 0 0.0209281)
(0.0210047 -0.00968387 0 0.0210047 0 0.0210047)
(0.0210814 -0.00975013 0 0.0210814 0 0.0210814)
(0.0211583 -0.00981654 0 0.0211583 0 0.0211583)
(0.0212355 -0.00988308 0 0.0212355 0 0.0212355)
(0.0213129 -0.00994973 0 0.0213129 0 0.0213129)
(0.0213905 -0.0100165 0 0.0213905 0 0.0213905)
(0.0214683 -0.0100835 0 0.0214683 0 0.0214683)
(0.0215463 -0.0101505 0 0.0215463 0 0.0215463)
(0.0216245 -0.0102177 0 0.0216245 0 0.0216245)
(0.021703 -0.010285 0 0.021703 0 0.021703)
(0.0217817 -0.0103524 0 0.0217817 0 0.0217817)
(0.0218605 -0.0104199 0 0.0218605 0 0.0218605)
(0.0219396 -0.0104876 0 0.0219396 0 0.0219396)
(0.022019 -0.0105554 0 0.022019 0 0.022019)
(0.0220985 -0.0106233 0 0.0220985 0 0.0220985)
(0.0221783 -0.0106913 0 0.0221783 0 0.0221783)
(0.0222582 -0.0107594 0 0.0222582 0 0.0222582)
(0.0223384 -0.0108276 0 0.0223384 0 0.0223384)
(0.0224188 -0.010896 0 0.0224188 0 0.0224188)
(0.0224994 -0.0109645 0 0.0224994 0 0.0224994)
(0.0225803 -0.011033 0 0.0225803 0 0.0225803)
(0.0226613 -0.0111017 0 0.0226613 0 0.0226613)
(0.0227426 -0.0111705 0 0.0227426 0 0.0227426)
(0.0228241 -0.0112394 0 0.0228241 0 0.0228241)
(0.0229058 -0.0113084 0 0.0229058 0 0.0229058)
(0.0229877 -0.0113775 0 0.0229877 0 0.0229877)
(0.0230698 -0.0114468 0 0.0230698 0 0.0230698)
(0.0231522 -0.0115161 0 0.0231522 0 0.0231522)
(0.0232348 -0.0115855 0 0.0232348 0 0.0232348)
(0.0233176 -0.011655 0 0.0233176 0 0.0233176)
(0.0234006 -0.0117246 0 0.0234006 0 0.0234006)
(0.0234839 -0.0117943 0 0.0234839 0 0.0234839)
(0.0235673 -0.0118641 0 0.0235673 0 0.0235673)
(0.023651 -0.011934 0 0.023651 0 0.023651)
(0.0237349 -0.012004 0 0.0237349 0 0.0237349)
(0.023819 -0.0120741 0 0.023819 0 0.023819)
(0.0239033 -0.0121443 0 0.0239033 0 0.0239033)
(0.0239879 -0.0122146 0 0.0239879 0 0.0239879)
(0.0240726 -0.0122849 0 0.0240726 0 0.0240726)
(0.0241576 -0.0123554 0 0.0241576 0 0.0241576)
(0.0242428 -0.0124259 0 0.0242428 0 0.0242428)
(0.0243282 -0.0124965 0 0.0243282 0 0.0243282)
(0.0244138 -0.0125672 0 0.0244138 0 0.0244138)
(0.0244996 -0.012638 0 0.0244996 0 0.0244996)
(0.0245857 -0.0127089 0 0.0245857 0 0.0245857)
(0.0246721 -0.0127798 0 0.0246721 0 0.0246721)
(0.0247585 -0.0128508 0 0.0247585 0 0.0247585)
(0.0248453 -0.012922 0 0.0248453 0 0.0248453)
(0.0249322 -0.0129932 0 0.0249322 0 0.0249322)
(0.0250193 -0.0130644 0 0.0250193 0 0.0250193)
(0.0251067 -0.0131358 0 0.0251067 0 0.0251067)
(0.0251942 -0.0132072 0 0.0251942 0 0.0251942)
(0.0252821 -0.0132787 0 0.0252821 0 0.0252821)
(0.0253701 -0.0133502 0 0.0253701 0 0.0253701)
(0.0254583 -0.0134219 0 0.0254583 0 0.0254583)
(0.0255467 -0.0134936 0 0.0255467 0 0.0255467)
(0.0256354 -0.0135653 0 0.0256354 0 0.0256354)
(0.0257243 -0.0136372 0 0.0257243 0 0.0257243)
(0.0258133 -0.0137091 0 0.0258133 0 0.0258133)
(0.0259026 -0.0137811 0 0.0259026 0 0.0259026)
(0.0259922 -0.0138531 0 0.0259922 0 0.0259922)
(0.0260819 -0.0139252 0 0.0260819 0 0.0260819)
(0.0261718 -0.0139974 0 0.0261718 0 0.0261718)
(0.026262 -0.0140696 0 0.026262 0 0.026262)
(0.0263523 -0.0141419 0 0.0263523 0 0.0263523)
(0.0264429 -0.0142142 0 0.0264429 0 0.0264429)
(0.0265337 -0.0142866 0 0.0265337 0 0.0265337)
(0.0266247 -0.0143591 0 0.0266247 0 0.0266247)
(0.0267159 -0.0144316 0 0.0267159 0 0.0267159)
(0.0268073 -0.0145042 0 0.0268073 0 0.0268073)
(0.026899 -0.0145768 0 0.026899 0 0.026899)
(0.0269908 -0.0146495 0 0.0269908 0 0.0269908)
(0.0270829 -0.0147222 0 0.0270829 0 0.0270829)
(0.0271752 -0.014795 0 0.0271752 0 0.0271752)
(0.0272676 -0.0148678 0 0.0272676 0 0.0272676)
(0.0273603 -0.0149407 0 0.0273603 0 0.0273603)
(0.0274532 -0.0150136 0 0.0274532 0 0.0274532)
(0.0275463 -0.0150866 0 0.0275463 0 0.0275463)
(0.0276396 -0.0151596 0 0.0276396 0 0.0276396)
(0.0277331 -0.0152327 0 0.0277331 0 0.0277331)
(0.0278268 -0.0153058 0 0.0278268 0 0.0278268)
(0.0279208 -0.015379 0 0.0279208 0 0.0279208)
(0.0280149 -0.0154521 0 0.0280149 0 0.0280149)
(0.0281093 -0.0155254 0 0.0281093 0 0.0281093)
(0.0282038 -0.0155986 0 0.0282038 0 0.0282038)
(0.0282986 -0.015672 0 0.0282986 0 0.0282986)
(0.0283935 -0.0157453 0 0.0283935 0 0.0283935)
(0.0284887 -0.0158187 0 0.0284887 0 0.0284887)
(0.028584 -0.0158921 0 0.028584 0 0.028584)
(0.0286796 -0.0159656 0 0.0286796 0 0.0286796)
(0.0287754 -0.0160391 0 0.0287754 0 0.0287754)
(0.0288713 -0.0161126 0 0.0288713 0 0.0288713)
(0.0289675 -0.0161861 0 0.0289675 0 0.0289675)
(0.0290639 -0.0162597 0 0.0290639 0 0.0290639)
(0.0291605 -0.0163333 0 0.0291605 0 0.0291605)
(0.0292572 -0.016407 0 0.0292572 0 0.0292572)
(0.0293542 -0.0164806 0 0.0293542 0 0.0293542)
(0.0294513 -0.0165543 0 0.0294513 0 0.0294513)
(0.0295487 -0.0166281 0 0.0295487 0 0.0295487)
(0.0296463 -0.0167018 0 0.0296463 0 0.0296463)
(0.029744 -0.0167756 0 0.029744 0 0.029744)
(0.029842 -0.0168494 0 0.029842 0 0.029842)
(0.0299401 -0.0169232 0 0.0299401 0 0.0299401)
(0.0300385 -0.016997 0 0.0300385 0 0.0300385)
(0.030137 -0.0170709 0 0.030137 0 0.030137)
(0.0302358 -0.0171447 0 0.0302358 0 0.0302358)
(0.0303347 -0.0172186 0 0.0303347 0 0.0303347)
(0.0304338 -0.0172926 0 0.0304338 0 0.0304338)
(0.0305331 -0.0173665 0 0.0305331 0 0.0305331)
(0.0306326 -0.0174404 0 0.0306326 0 0.0306326)
(0.0307323 -0.0175144 0 0.0307323 0 0.0307323)
(0.0308322 -0.0175883 0 0.0308322 0 0.0308322)
(0.0309323 -0.0176623 0 0.0309323 0 0.0309323)
(0.0310326 -0.0177363 0 0.0310326 0 0.0310326)
(0.031133 -0.0178103 0 0.031133 0 0.031133)
(0.0312336 -0.0178843 0 0.0312336 0 0.0312336)
(0.0313345 -0.0179583 0 0.0313345 0 0.0313345)
(0.0314355 -0.0180323 0 0.0314355 0 0.0314355)
(0.0315366 -0.0181064 0 0.0315366 0 0.0315366)
(0.031638 -0.0181804 0 0.031638 0 0.031638)
(0.0317396 -0.0182544 0 0.0317396 0 0.0317396)
(0.0318413 -0.0183285 0 0.0318413 0 0.0318413)
(0.0319433 -0.0184025 0 0.0319433 0 0.0319433)
(0.0320454 -0.0184765 0 0.0320454 0 0.0320454)
(0.0321476 -0.0185506 0 0.0321476 0 0.0321476)
(0.0322501 -0.0186246 0 0.0322501 0 0.0322501)
(0.0323528 -0.0186987 0 0.0323528 0 0.0323528)
(0.0324556 -0.0187727 0 0.0324556 0 0.0324556)
(0.0325586 -0.0188467 0 0.0325586 0 0.0325586)
(0.0326618 -0.0189208 0 0.0326618 0 0.0326618)
(0.0327652 -0.0189948 0 0.0327652 0 0.0327652)
(0.0328687 -0.0190688 0 0.0328687 0 0.0328687)
(0.0329724 -0.0191428 0 0.0329724 0 0.0329724)
(0.0330763 -0.0192168 0 0.0330763 0 0.0330763)
(0.0331803 -0.0192908 0 0.0331803 0 0.0331803)
(0.0332845 -0.0193648 0 0.0332845 0 0.0332845)
(0.0333889 -0.0194388 0 0.0333889 0 0.0333889)
(0.0334935 -0.0195127 0 0.0334935 0 0.0334935)
(0.0335982 -0.0195867 0 0.0335982 0 0.0335982)
(0.0337031 -0.0196606 0 0.0337031 0 0.0337031)
(0.0338082 -0.0197345 0 0.0338082 0 0.0338082)
(0.0339134 -0.0198084 0 0.0339134 0 0.0339134)
(0.0340188 -0.0198823 0 0.0340188 0 0.0340188)
(0.0341244 -0.0199562 0 0.0341244 0 0.0341244)
(0.0342301 -0.02003 0 0.0342301 0 0.0342301)
(0.034336 -0.0201038 0 0.034336 0 0.034336)
(0.0344421 -0.0201776 0 0.0344421 0 0.0344421)
(0.0345483 -0.0202514 0 0.0345483 0 0.0345483)
(0.0346547 -0.0203252 0 0.0346547 0 0.0346547)
(0.0347612 -0.0203989 0 0.0347612 0 0.0347612)
(0.0348679 -0.0204726 0 0.0348679 0 0.0348679)
(0.0349748 -0.0205463 0 0.0349748 0 0.0349748)
(0.0350818 -0.0206199 0 0.0350818 0 0.0350818)
(0.0351889 -0.0206936 0 0.0351889 0 0.0351889)
(0.0352962 -0.0207672 0 0.0352962 0 0.0352962)
(0.0354037 -0.0208408 0 0.0354037 0 0.0354037)
(0.0355113 -0.0209143 0 0.0355113 0 0.0355113)
(0.0356191 -0.0209878 0 0.0356191 0 0.0356191)
(0.035727 -0.0210613 0 0.035727 0 0.035727)
(0.0358351 -0.0211347 0 0.0358351 0 0.0358351)
(0.0359433 -0.0212081 0 0.0359433 0 0.0359433)
(0.0360517 -0.0212815 0 0.0360517 0 0.0360517)
(0.0361602 -0.0213548 0 0.0361602 0 0.0361602)
(0.0362688 -0.0214281 0 0.0362688 0 0.0362688)
(0.0363776 -0.0215014 0 0.0363776 0 0.0363776)
(0.0364866 -0.0215746 0 0.0364866 0 0.0364866)
(0.0365957 -0.0216478 0 0.0365957 0 0.0365957)
(0.0367049 -0.021721 0 0.0367049 0 0.0367049)
(0.0368142 -0.0217941 0 0.0368142 0 0.0368142)
(0.0369237 -0.0218671 0 0.0369237 0 0.0369237)
(0.0370334 -0.0219401 0 0.0370334 0 0.0370334)
(0.0371431 -0.0220131 0 0.0371431 0 0.0371431)
(0.037253 -0.022086 0 0.037253 0 0.037253)
(0.0373631 -0.0221589 0 0.0373631 0 0.0373631)
(0.0374733 -0.0222317 0 0.0374733 0 0.0374733)
(0.0375836 -0.0223045 0 0.0375836 0 0.0375836)
(0.037694 -0.0223772 0 0.037694 0 0.037694)
(0.0378046 -0.0224499 0 0.0378046 0 0.0378046)
(0.0379153 -0.0225225 0 0.0379153 0 0.0379153)
(0.0380261 -0.022595 0 0.0380261 0 0.0380261)
(0.038137 -0.0226676 0 0.038137 0 0.038137)
(0.0382481 -0.02274 0 0.0382481 0 0.0382481)
(0.0383592 -0.0228124 0 0.0383592 0 0.0383592)
(0.0384706 -0.0228848 0 0.0384706 0 0.0384706)
(0.038582 -0.022957 0 0.038582 0 0.038582)
(0.0386935 -0.0230293 0 0.0386935 0 0.0386935)
(0.0388052 -0.0231014 0 0.0388052 0 0.0388052)
(0.038917 -0.0231735 0 0.038917 0 0.038917)
(0.0390289 -0.0232456 0 0.0390289 0 0.0390289)
(0.0391409 -0.0233176 0 0.0391409 0 0.0391409)
(0.039253 -0.0233895 0 0.039253 0 0.039253)
(0.0393652 -0.0234613 0 0.0393652 0 0.0393652)
(0.0394776 -0.0235331 0 0.0394776 0 0.0394776)
(0.03959 -0.0236048 0 0.03959 0 0.03959)
(0.0397026 -0.0236765 0 0.0397026 0 0.0397026)
(0.0398152 -0.023748 0 0.0398152 0 0.0398152)
(0.039928 -0.0238195 0 0.039928 0 0.039928)
(0.0400408 -0.023891 0 0.0400408 0 0.0400408)
(0.0401538 -0.0239623 0 0.0401538 0 0.0401538)
(0.0402669 -0.0240336 0 0.0402669 0 0.0402669)
(0.04038 -0.0241048 0 0.04038 0 0.04038)
(0.0404933 -0.024176 0 0.0404933 0 0.0404933)
(0.0406066 -0.024247 0 0.0406066 0 0.0406066)
(0.0407201 -0.024318 0 0.0407201 0 0.0407201)
(0.0408336 -0.0243889 0 0.0408336 0 0.0408336)
(0.0409472 -0.0244597 0 0.0409472 0 0.0409472)
(0.041061 -0.0245305 0 0.041061 0 0.041061)
(0.0411748 -0.0246011 0 0.0411748 0 0.0411748)
(0.0412886 -0.0246717 0 0.0412886 0 0.0412886)
(0.0414026 -0.0247422 0 0.0414026 0 0.0414026)
(0.0415167 -0.0248126 0 0.0415167 0 0.0415167)
(0.0416308 -0.0248829 0 0.0416308 0 0.0416308)
(0.041745 -0.0249531 0 0.041745 0 0.041745)
(0.0418593 -0.0250233 0 0.0418593 0 0.0418593)
(0.0419737 -0.0250933 0 0.0419737 0 0.0419737)
(0.0420882 -0.0251633 0 0.0420882 0 0.0420882)
(0.0422027 -0.0252331 0 0.0422027 0 0.0422027)
(0.0423173 -0.0253029 0 0.0423173 0 0.0423173)
(0.0424319 -0.0253726 0 0.0424319 0 0.0424319)
(0.0425467 -0.0254422 0 0.0425467 0 0.0425467)
(0.0426615 -0.0255117 0 0.0426615 0 0.0426615)
(0.0427763 -0.0255811 0 0.0427763 0 0.0427763)
(0.0428912 -0.0256503 0 0.0428912 0 0.0428912)
(0.0430062 -0.0257195 0 0.0430062 0 0.0430062)
(0.0431213 -0.0257886 0 0.0431213 0 0.0431213)
(0.0432364 -0.0258576 0 0.0432364 0 0.0432364)
(0.0433515 -0.0259265 0 0.0433515 0 0.0433515)
(0.0434668 -0.0259953 0 0.0434668 0 0.0434668)
(0.043582 -0.0260639 0 0.043582 0 0.043582)
(0.0436973 -0.0261325 0 0.0436973 0 0.0436973)
(0.0438127 -0.0262009 0 0.0438127 0 0.0438127)
(0.0439281 -0.0262693 0 0.0439281 0 0.0439281)
(0.0440436 -0.0263375 0 0.0440436 0 0.0440436)
(0.0441591 -0.0264056 0 0.0441591 0 0.0441591)
(0.0442746 -0.0264736 0 0.0442746 0 0.0442746)
(0.0443902 -0.0265415 0 0.0443902 0 0.0443902)
(0.0445058 -0.0266093 0 0.0445058 0 0.0445058)
(0.0446215 -0.026677 0 0.0446215 0 0.0446215)
(0.0447372 -0.0267445 0 0.0447372 0 0.0447372)
(0.0448529 -0.026812 0 0.0448529 0 0.0448529)
(0.0449687 -0.0268793 0 0.0449687 0 0.0449687)
(0.0450845 -0.0269464 0 0.0450845 0 0.0450845)
(0.0452003 -0.0270135 0 0.0452003 0 0.0452003)
(0.0453161 -0.0270804 0 0.0453161 0 0.0453161)
(0.045432 -0.0271472 0 0.045432 0 0.045432)
(0.0455479 -0.0272139 0 0.0455479 0 0.0455479)
(0.0456638 -0.0272805 0 0.0456638 0 0.0456638)
(0.0457797 -0.0273469 0 0.0457797 0 0.0457797)
(0.0458956 -0.0274132 0 0.0458956 0 0.0458956)
(0.0460116 -0.0274794 0 0.0460116 0 0.0460116)
(0.0461275 -0.0275454 0 0.0461275 0 0.0461275)
(0.0462435 -0.0276113 0 0.0462435 0 0.0462435)
(0.0463594 -0.0276771 0 0.0463594 0 0.0463594)
(0.0464754 -0.0277427 0 0.0464754 0 0.0464754)
(0.0465914 -0.0278082 0 0.0465914 0 0.0465914)
(0.0467074 -0.0278736 0 0.0467074 0 0.0467074)
(0.0468234 -0.0279388 0 0.0468234 0 0.0468234)
(0.0469393 -0.0280039 0 0.0469393 0 0.0469393)
(0.0470553 -0.0280688 0 0.0470553 0 0.0470553)
(0.0471713 -0.0281336 0 0.0471713 0 0.0471713)
(0.0472872 -0.0281982 0 0.0472872 0 0.0472872)
(0.0474031 -0.0282627 0 0.0474031 0 0.0474031)
(0.0475191 -0.028327 0 0.0475191 0 0.0475191)
(0.047635 -0.0283912 0 0.047635 0 0.047635)
(0.0477508 -0.0284553 0 0.0477508 0 0.0477508)
(0.0478667 -0.0285192 0 0.0478667 0 0.0478667)
(0.0479825 -0.0285829 0 0.0479825 0 0.0479825)
(0.0480983 -0.0286465 0 0.0480983 0 0.0480983)
(0.0482141 -0.0287099 0 0.0482141 0 0.0482141)
(0.0483299 -0.0287732 0 0.0483299 0 0.0483299)
(0.0484456 -0.0288363 0 0.0484456 0 0.0484456)
(0.0485613 -0.0288993 0 0.0485613 0 0.0485613)
(0.0486769 -0.0289621 0 0.0486769 0 0.0486769)
(0.0487925 -0.0290247 0 0.0487925 0 0.0487925)
(0.0489081 -0.0290872 0 0.0489081 0 0.0489081)
(0.0490236 -0.0291495 0 0.0490236 0 0.0490236)
(0.0491391 -0.0292116 0 0.0491391 0 0.0491391)
(0.0492545 -0.0292736 0 0.0492545 0 0.0492545)
(0.0493698 -0.0293354 0 0.0493698 0 0.0493698)
(0.0494852 -0.029397 0 0.0494852 0 0.0494852)
(0.0496004 -0.0294584 0 0.0496004 0 0.0496004)
(0.0497156 -0.0295197 0 0.0497156 0 0.0497156)
(0.0498307 -0.0295808 0 0.0498307 0 0.0498307)
(0.0499458 -0.0296417 0 0.0499458 0 0.0499458)
(0.0500608 -0.0297025 0 0.0500608 0 0.0500608)
(0.0501757 -0.0297631 0 0.0501757 0 0.0501757)
(0.0502906 -0.0298235 0 0.0502906 0 0.0502906)
(0.0504054 -0.0298837 0 0.0504054 0 0.0504054)
(0.0505201 -0.0299437 0 0.0505201 0 0.0505201)
(0.0506347 -0.0300035 0 0.0506347 0 0.0506347)
(0.0507493 -0.0300632 0 0.0507493 0 0.0507493)
(0.0508637 -0.0301226 0 0.0508637 0 0.0508637)
(0.0509781 -0.0301819 0 0.0509781 0 0.0509781)
(0.0510924 -0.030241 0 0.0510924 0 0.0510924)
(0.0512065 -0.0302999 0 0.0512065 0 0.0512065)
(0.0513206 -0.0303586 0 0.0513206 0 0.0513206)
(0.0514346 -0.0304173 0 0.0514346 0 0.0514346)
(0.0515485 -0.0304758 0 0.0515485 0 0.0515485)
(0.0516623 -0.0305343 0 0.0516623 0 0.0516623)
(0.051776 -0.0305927 0 0.051776 0 0.051776)
(0.0518896 -0.0306512 0 0.0518896 0 0.0518896)
(0.052003 -0.0307104 0 0.052003 0 0.052003)
(0.0521164 -0.0307694 0 0.0521164 0 0.0521164)
(0.0522296 -0.0308281 0 0.0522296 0 0.0522296)
(0.0523428 -0.0308863 0 0.0523428 0 0.0523428)
(0.0524558 -0.0309433 0 0.0524558 0 0.0524558)
(0.0525686 -0.031 0 0.0525686 0 0.0525686)
(0.0526814 -0.0310563 0 0.0526814 0 0.0526814)
(0.052794 -0.0311125 0 0.052794 0 0.052794)
(0.0529065 -0.0311683 0 0.0529065 0 0.0529065)
(0.0530188 -0.031224 0 0.0530188 0 0.0530188)
(0.053131 -0.0312794 0 0.053131 0 0.053131)
(0.0532431 -0.0313346 0 0.0532431 0 0.0532431)
(0.053355 -0.0313895 0 0.053355 0 0.053355)
(0.0534667 -0.0314443 0 0.0534667 0 0.0534667)
(0.0535784 -0.0314988 0 0.0535784 0 0.0535784)
(0.0536898 -0.031553 0 0.0536898 0 0.0536898)
(0.0538011 -0.0316071 0 0.0538011 0 0.0538011)
(0.0539122 -0.0316609 0 0.0539122 0 0.0539122)
(0.0540232 -0.0317145 0 0.0540232 0 0.0540232)
(0.054134 -0.0317679 0 0.054134 0 0.054134)
(0.0542446 -0.031821 0 0.0542446 0 0.0542446)
(0.054355 -0.0318739 0 0.054355 0 0.054355)
(0.0544653 -0.0319265 0 0.0544653 0 0.0544653)
(0.0545754 -0.031979 0 0.0545754 0 0.0545754)
(0.0546853 -0.0320311 0 0.0546853 0 0.0546853)
(0.054795 -0.0320831 0 0.054795 0 0.054795)
(0.0549045 -0.0321348 0 0.0549045 0 0.0549045)
(0.0550138 -0.0321862 0 0.0550138 0 0.0550138)
(0.055123 -0.0322374 0 0.055123 0 0.055123)
(0.0552319 -0.0322884 0 0.0552319 0 0.0552319)
(0.0553406 -0.0323391 0 0.0553406 0 0.0553406)
(0.0554492 -0.0323895 0 0.0554492 0 0.0554492)
(0.0555575 -0.0324397 0 0.0555575 0 0.0555575)
(0.0556656 -0.0324897 0 0.0556656 0 0.0556656)
(0.0557735 -0.0325394 0 0.0557735 0 0.0557735)
(0.0558811 -0.0325888 0 0.0558811 0 0.0558811)
(0.0559886 -0.032638 0 0.0559886 0 0.0559886)
(0.0560958 -0.0326869 0 0.0560958 0 0.0560958)
(0.0562028 -0.0327355 0 0.0562028 0 0.0562028)
(0.0563096 -0.0327839 0 0.0563096 0 0.0563096)
(0.0564161 -0.0328321 0 0.0564161 0 0.0564161)
(0.0565223 -0.0328799 0 0.0565223 0 0.0565223)
(0.0566284 -0.0329275 0 0.0566284 0 0.0566284)
(0.0567342 -0.0329748 0 0.0567342 0 0.0567342)
(0.0568398 -0.0330219 0 0.0568398 0 0.0568398)
(0.056945 -0.0330687 0 0.056945 0 0.056945)
(0.05705 -0.0331152 0 0.05705 0 0.05705)
(0.0571548 -0.0331614 0 0.0571548 0 0.0571548)
(0.0572594 -0.0332073 0 0.0572594 0 0.0572594)
(0.0573636 -0.033253 0 0.0573636 0 0.0573636)
(0.0574675 -0.0332984 0 0.0574675 0 0.0574675)
(0.0575713 -0.0333435 0 0.0575713 0 0.0575713)
(0.0576748 -0.0333882 0 0.0576748 0 0.0576748)
(0.0577779 -0.0334327 0 0.0577779 0 0.0577779)
(0.0578808 -0.033477 0 0.0578808 0 0.0578808)
(0.0579833 -0.033521 0 0.0579833 0 0.0579833)
(0.0580856 -0.0335646 0 0.0580856 0 0.0580856)
(0.0581877 -0.0336079 0 0.0581877 0 0.0581877)
(0.0582893 -0.033651 0 0.0582893 0 0.0582893)
(0.0583906 -0.0336939 0 0.0583906 0 0.0583906)
(0.0584917 -0.0337363 0 0.0584917 0 0.0584917)
(0.0585926 -0.0337785 0 0.0585926 0 0.0585926)
(0.0586931 -0.0338203 0 0.0586931 0 0.0586931)
(0.0587932 -0.0338618 0 0.0587932 0 0.0587932)
(0.058893 -0.0339031 0 0.058893 0 0.058893)
(0.0589925 -0.0339441 0 0.0589925 0 0.0589925)
(0.0590917 -0.0339848 0 0.0590917 0 0.0590917)
(0.0591905 -0.0340251 0 0.0591905 0 0.0591905)
(0.0592891 -0.0340651 0 0.0592891 0 0.0592891)
(0.0593872 -0.0341048 0 0.0593872 0 0.0593872)
(0.059485 -0.0341442 0 0.059485 0 0.059485)
(0.0595826 -0.0341833 0 0.0595826 0 0.0595826)
(0.0596797 -0.0342221 0 0.0596797 0 0.0596797)
(0.0597764 -0.0342606 0 0.0597764 0 0.0597764)
(0.0598728 -0.0342987 0 0.0598728 0 0.0598728)
(0.0599689 -0.0343365 0 0.0599689 0 0.0599689)
(0.0600646 -0.0343739 0 0.0600646 0 0.0600646)
(0.06016 -0.034411 0 0.06016 0 0.06016)
(0.060255 -0.0344479 0 0.060255 0 0.060255)
(0.0603495 -0.0344844 0 0.0603495 0 0.0603495)
(0.0604437 -0.0345205 0 0.0604437 0 0.0604437)
(0.0605376 -0.0345563 0 0.0605376 0 0.0605376)
(0.060631 -0.0345918 0 0.060631 0 0.060631)
(0.0607241 -0.034627 0 0.0607241 0 0.0607241)
(0.0608167 -0.0346618 0 0.0608167 0 0.0608167)
(0.060909 -0.0346962 0 0.060909 0 0.060909)
(0.0610008 -0.0347304 0 0.0610008 0 0.0610008)
(0.0610922 -0.0347642 0 0.0610922 0 0.0610922)
(0.0611832 -0.0347977 0 0.0611832 0 0.0611832)
(0.0612738 -0.0348308 0 0.0612738 0 0.0612738)
(0.061364 -0.0348635 0 0.061364 0 0.061364)
(0.0614538 -0.0348959 0 0.0614538 0 0.0614538)
(0.0615431 -0.034928 0 0.0615431 0 0.0615431)
(0.061632 -0.0349597 0 0.061632 0 0.061632)
(0.0617205 -0.034991 0 0.0617205 0 0.0617205)
(0.0618086 -0.0350219 0 0.0618086 0 0.0618086)
(0.0618962 -0.0350525 0 0.0618962 0 0.0618962)
(0.0619834 -0.0350828 0 0.0619834 0 0.0619834)
(0.0620701 -0.0351127 0 0.0620701 0 0.0620701)
(0.0621563 -0.0351422 0 0.0621563 0 0.0621563)
(0.0622421 -0.0351714 0 0.0622421 0 0.0622421)
(0.0623274 -0.0352002 0 0.0623274 0 0.0623274)
(0.0624123 -0.0352287 0 0.0624123 0 0.0624123)
(0.0624967 -0.0352568 0 0.0624967 0 0.0624967)
(0.0625805 -0.0352845 0 0.0625805 0 0.0625805)
(0.062664 -0.0353118 0 0.062664 0 0.062664)
(0.062747 -0.0353387 0 0.062747 0 0.062747)