/*--------------------------------*- C++ -*----------------------------------*\
| =========                 |                                                 |
| \\      /  F ield         | OpenFOAM: The Open Source CFD Toolbox           |
|  \\    /   O peration     | Version:  v1806                                 |
|   \\  /    A nd           | Web:      www.OpenFOAM.com                      |
|    \\/     M anipulation  |                                                 |
\*---------------------------------------------------------------------------*/
FoamFile
{
    version     2.0;
    format      ascii;
    class       volVectorField;
    location    "10000";
    object      U;
}
// * * * * * * * * * * * * * * * * * * * * * * * * * * * * * * * * * * * * * //

dimensions      [0 1 -1 0 0 0 0];


internalField   nonuniform List<vector> 
1025
(
(0.00336704 -2.08446e-16 0)
(0.0100906 -4.50433e-16 0)
(0.016665 -4.36105e-16 0)
(0.0224733 -4.14326e-16 0)
(0.0268675 -4.10743e-16 0)
(0.0299591 -4.11917e-16 0)
(0.0321762 -4.12463e-16 0)
(0.0338488 -4.1249e-16 0)
(0.0351777 -4.12413e-16 0)
(0.0362794 -4.1235e-16 0)
(0.0372228 -4.12303e-16 0)
(0.0380507 -4.12269e-16 0)
(0.038791 -4.12241e-16 0)
(0.0394628 -4.12218e-16 0)
(0.0400796 -4.122e-16 0)
(0.0406513 -4.12187e-16 0)
(0.0411855 -4.12176e-16 0)
(0.0416879 -4.12169e-16 0)
(0.0421631 -4.12163e-16 0)
(0.0426149 -4.12158e-16 0)
(0.0430461 -4.12157e-16 0)
(0.0434593 -4.12153e-16 0)
(0.0438566 -4.12152e-16 0)
(0.0442397 -4.12153e-16 0)
(0.0446102 -4.12154e-16 0)
(0.0449693 -4.12154e-16 0)
(0.0453182 -4.12157e-16 0)
(0.0456578 -4.12152e-16 0)
(0.045989 -4.12153e-16 0)
(0.0463127 -4.12149e-16 0)
(0.0466294 -4.12146e-16 0)
(0.0469397 -4.12152e-16 0)
(0.0472443 -4.12147e-16 0)
(0.0475437 -4.12148e-16 0)
(0.0478382 -4.12149e-16 0)
(0.0481283 -4.12149e-16 0)
(0.0484143 -4.12151e-16 0)
(0.0486966 -4.12149e-16 0)
(0.0489756 -4.12146e-16 0)
(0.0492514 -4.12146e-16 0)
(0.0495244 -4.12141e-16 0)
(0.0497948 -4.12139e-16 0)
(0.0500629 -4.12138e-16 0)
(0.0503288 -4.12139e-16 0)
(0.0505927 -4.12141e-16 0)
(0.0508549 -4.12135e-16 0)
(0.0511154 -4.12136e-16 0)
(0.0513745 -4.12137e-16 0)
(0.0516324 -4.12135e-16 0)
(0.051889 -4.12135e-16 0)
(0.0521447 -4.12135e-16 0)
(0.0523995 -4.1214e-16 0)
(0.0526535 -4.12133e-16 0)
(0.0529069 -4.12139e-16 0)
(0.0531596 -4.12134e-16 0)
(0.053412 -4.1213e-16 0)
(0.0536641 -4.12131e-16 0)
(0.0539158 -4.12133e-16 0)
(0.0541674 -4.12129e-16 0)
(0.0544188 -4.12125e-16 0)
(0.0546703 -4.12123e-16 0)
(0.0549219 -4.12125e-16 0)
(0.0551735 -4.12122e-16 0)
(0.0554254 -4.12121e-16 0)
(0.0556776 -4.1212e-16 0)
(0.0559301 -4.12127e-16 0)
(0.0561829 -4.12127e-16 0)
(0.0564363 -4.1213e-16 0)
(0.0566901 -4.1212e-16 0)
(0.0569445 -4.12119e-16 0)
(0.0571996 -4.12108e-16 0)
(0.0574553 -4.12108e-16 0)
(0.0577116 -4.12104e-16 0)
(0.0579688 -4.12102e-16 0)
(0.0582268 -4.12109e-16 0)
(0.0584856 -4.12102e-16 0)
(0.0587453 -4.12107e-16 0)
(0.059006 -4.12102e-16 0)
(0.0592676 -4.12108e-16 0)
(0.0595302 -4.12103e-16 0)
(0.0597938 -4.12109e-16 0)
(0.0600586 -4.12098e-16 0)
(0.0603244 -4.12105e-16 0)
(0.0605914 -4.121e-16 0)
(0.0608596 -4.12104e-16 0)
(0.061129 -4.12103e-16 0)
(0.0613997 -4.12102e-16 0)
(0.0616716 -4.12102e-16 0)
(0.0619448 -4.12101e-16 0)
(0.0622194 -4.12103e-16 0)
(0.0624953 -4.12106e-16 0)
(0.0627725 -4.12102e-16 0)
(0.0630512 -4.12097e-16 0)
(0.0633314 -4.12095e-16 0)
(0.063613 -4.12095e-16 0)
(0.0638961 -4.12089e-16 0)
(0.0641807 -4.12089e-16 0)
(0.0644668 -4.12074e-16 0)
(0.0647545 -4.12067e-16 0)
(0.0650438 -4.12069e-16 0)
(0.0653347 -4.12065e-16 0)
(0.0656271 -4.12067e-16 0)
(0.0659213 -4.12066e-16 0)
(0.0662171 -4.12072e-16 0)
(0.0665146 -4.12064e-16 0)
(0.0668138 -4.12066e-16 0)
(0.0671146 -4.12056e-16 0)
(0.0674173 -4.12051e-16 0)
(0.0677217 -4.12062e-16 0)
(0.0680279 -4.12062e-16 0)
(0.0683359 -4.12057e-16 0)
(0.0686456 -4.1206e-16 0)
(0.0689572 -4.12049e-16 0)
(0.0692707 -4.12049e-16 0)
(0.069586 -4.1205e-16 0)
(0.0699032 -4.12055e-16 0)
(0.0702223 -4.1206e-16 0)
(0.0705433 -4.12066e-16 0)
(0.0708662 -4.12065e-16 0)
(0.0711911 -4.12061e-16 0)
(0.0715178 -4.12051e-16 0)
(0.0718466 -4.12042e-16 0)
(0.0721774 -4.12037e-16 0)
(0.0725101 -4.12039e-16 0)
(0.0728449 -4.12036e-16 0)
(0.0731817 -4.12031e-16 0)
(0.0735205 -4.12024e-16 0)
(0.0738613 -4.12022e-16 0)
(0.0742043 -4.12017e-16 0)
(0.0745493 -4.12018e-16 0)
(0.0748963 -4.12016e-16 0)
(0.0752455 -4.12005e-16 0)
(0.0755968 -4.11995e-16 0)
(0.0759502 -4.11995e-16 0)
(0.0763058 -4.11991e-16 0)
(0.0766634 -4.11984e-16 0)
(0.0770233 -4.11978e-16 0)
(0.0773853 -4.11972e-16 0)
(0.0777495 -4.11972e-16 0)
(0.0781158 -4.11969e-16 0)
(0.0784844 -4.11971e-16 0)
(0.0788551 -4.11969e-16 0)
(0.0792282 -4.11976e-16 0)
(0.0796034 -4.11975e-16 0)
(0.0799808 -4.11969e-16 0)
(0.0803605 -4.11973e-16 0)
(0.0807425 -4.11973e-16 0)
(0.0811267 -4.1197e-16 0)
(0.0815132 -4.11958e-16 0)
(0.081902 -4.1196e-16 0)
(0.0822931 -4.11957e-16 0)
(0.0826865 -4.11953e-16 0)
(0.0830822 -4.11956e-16 0)
(0.0834802 -4.11957e-16 0)
(0.0838806 -4.11955e-16 0)
(0.0842833 -4.11957e-16 0)
(0.0846883 -4.11961e-16 0)
(0.0850957 -4.11973e-16 0)
(0.0855054 -4.11983e-16 0)
(0.0859175 -4.11999e-16 0)
(0.086332 -4.11997e-16 0)
(0.0867489 -4.11996e-16 0)
(0.0871682 -4.12e-16 0)
(0.0875898 -4.12002e-16 0)
(0.0880139 -4.11997e-16 0)
(0.0884404 -4.11995e-16 0)
(0.0888693 -4.11995e-16 0)
(0.0893006 -4.1199e-16 0)
(0.0897344 -4.11983e-16 0)
(0.0901705 -4.11998e-16 0)
(0.090609 -4.11992e-16 0)
(0.0910503 -4.11965e-16 0)
(0.0914941 -4.11993e-16 0)
(0.09194 -4.1199e-16 0)
(0.0923884 -4.11984e-16 0)
(0.0928395 -4.11948e-16 0)
(0.093293 -4.11988e-16 0)
(0.0937489 -4.11968e-16 0)
(0.0942074 -4.1198e-16 0)
(0.0946684 -4.11985e-16 0)
(0.0951318 -4.11987e-16 0)
(0.0955976 -4.11992e-16 0)
(0.0960661 -4.11962e-16 0)
(0.0965372 -4.11961e-16 0)
(0.0970107 -4.1197e-16 0)
(0.0974868 -4.1196e-16 0)
(0.0979656 -4.11966e-16 0)
(0.0984468 -4.11971e-16 0)
(0.0989303 -4.11983e-16 0)
(0.0994164 -4.11966e-16 0)
(0.0999054 -4.1195e-16 0)
(0.100397 -4.1198e-16 0)
(0.100891 -4.11916e-16 0)
(0.101387 -4.11947e-16 0)
(0.101886 -4.11896e-16 0)
(0.102388 -4.11933e-16 0)
(0.102892 -4.11899e-16 0)
(0.103399 -4.11954e-16 0)
(0.103909 -4.11908e-16 0)
(0.104421 -4.1192e-16 0)
(0.104935 -4.11939e-16 0)
(0.105452 -4.11927e-16 0)
(0.105972 -4.11929e-16 0)
(0.106495 -4.1193e-16 0)
(0.10702 -4.11956e-16 0)
(0.107548 -4.11938e-16 0)
(0.108078 -4.11913e-16 0)
(0.108611 -4.11934e-16 0)
(0.109147 -4.11901e-16 0)
(0.109685 -4.11924e-16 0)
(0.110226 -4.11923e-16 0)
(0.110769 -4.11909e-16 0)
(0.111315 -4.11925e-16 0)
(0.111864 -4.11893e-16 0)
(0.112416 -4.11895e-16 0)
(0.11297 -4.11936e-16 0)
(0.113526 -4.11933e-16 0)
(0.114086 -4.11908e-16 0)
(0.114648 -4.1194e-16 0)
(0.115212 -4.11914e-16 0)
(0.11578 -4.11911e-16 0)
(0.11635 -4.11919e-16 0)
(0.116923 -4.11866e-16 0)
(0.117498 -4.1186e-16 0)
(0.118076 -4.11867e-16 0)
(0.118657 -4.11852e-16 0)
(0.119241 -4.11884e-16 0)
(0.119827 -4.1186e-16 0)
(0.120415 -4.11852e-16 0)
(0.121007 -4.1183e-16 0)
(0.121601 -4.11863e-16 0)
(0.122198 -4.11851e-16 0)
(0.122798 -4.11841e-16 0)
(0.1234 -4.11851e-16 0)
(0.124005 -4.1185e-16 0)
(0.124613 -4.1184e-16 0)
(0.125223 -4.11814e-16 0)
(0.125836 -4.11805e-16 0)
(0.126452 -4.11819e-16 0)
(0.12707 -4.11781e-16 0)
(0.127692 -4.11768e-16 0)
(0.128315 -4.11746e-16 0)
(0.128942 -4.11743e-16 0)
(0.129571 -4.11717e-16 0)
(0.130204 -4.11768e-16 0)
(0.130838 -4.11742e-16 0)
(0.131476 -4.11764e-16 0)
(0.132116 -4.1176e-16 0)
(0.132759 -4.11754e-16 0)
(0.133405 -4.11771e-16 0)
(0.134053 -4.11729e-16 0)
(0.134704 -4.11735e-16 0)
(0.135358 -4.11736e-16 0)
(0.136014 -4.11736e-16 0)
(0.136674 -4.11711e-16 0)
(0.137336 -4.11732e-16 0)
(0.138001 -4.11727e-16 0)
(0.138668 -4.11723e-16 0)
(0.139338 -4.11707e-16 0)
(0.140011 -4.11675e-16 0)
(0.140687 -4.11652e-16 0)
(0.141365 -4.1162e-16 0)
(0.142046 -4.11616e-16 0)
(0.14273 -4.11586e-16 0)
(0.143417 -4.11579e-16 0)
(0.144106 -4.11605e-16 0)
(0.144798 -4.11602e-16 0)
(0.145493 -4.11622e-16 0)
(0.146191 -4.11633e-16 0)
(0.146891 -4.11601e-16 0)
(0.147594 -4.11589e-16 0)
(0.1483 -4.11575e-16 0)
(0.149009 -4.11579e-16 0)
(0.14972 -4.11591e-16 0)
(0.150434 -4.1157e-16 0)
(0.151151 -4.11545e-16 0)
(0.15187 -4.11558e-16 0)
(0.152592 -4.11531e-16 0)
(0.153317 -4.11492e-16 0)
(0.154045 -4.11468e-16 0)
(0.154776 -4.11402e-16 0)
(0.155509 -4.11341e-16 0)
(0.156245 -4.11304e-16 0)
(0.156984 -4.11301e-16 0)
(0.157726 -4.11283e-16 0)
(0.15847 -4.1125e-16 0)
(0.159217 -4.1122e-16 0)
(0.159967 -4.11212e-16 0)
(0.160719 -4.11209e-16 0)
(0.161475 -4.11189e-16 0)
(0.162233 -4.1116e-16 0)
(0.162993 -4.11145e-16 0)
(0.163757 -4.11146e-16 0)
(0.164523 -4.11139e-16 0)
(0.165292 -4.11172e-16 0)
(0.166064 -4.11166e-16 0)
(0.166839 -4.11172e-16 0)
(0.167616 -4.1117e-16 0)
(0.168396 -4.11147e-16 0)
(0.169179 -4.1115e-16 0)
(0.169965 -4.11159e-16 0)
(0.170753 -4.11153e-16 0)
(0.171544 -4.11168e-16 0)
(0.172338 -4.11169e-16 0)
(0.173135 -4.11189e-16 0)
(0.173934 -4.112e-16 0)
(0.174737 -4.1121e-16 0)
(0.175541 -4.11168e-16 0)
(0.176349 -4.11133e-16 0)
(0.17716 -4.11144e-16 0)
(0.177973 -4.11149e-16 0)
(0.178789 -4.11115e-16 0)
(0.179608 -4.1108e-16 0)
(0.180429 -4.11097e-16 0)
(0.181253 -4.11082e-16 0)
(0.18208 -4.111e-16 0)
(0.18291 -4.111e-16 0)
(0.183743 -4.11077e-16 0)
(0.184578 -4.11108e-16 0)
(0.185416 -4.11123e-16 0)
(0.186257 -4.11181e-16 0)
(0.187101 -4.11186e-16 0)
(0.187947 -4.11166e-16 0)
(0.188796 -4.11157e-16 0)
(0.189648 -4.11159e-16 0)
(0.190503 -4.11175e-16 0)
(0.19136 -4.11213e-16 0)
(0.19222 -4.11226e-16 0)
(0.193083 -4.11218e-16 0)
(0.193949 -4.11211e-16 0)
(0.194818 -4.11231e-16 0)
(0.195689 -4.11201e-16 0)
(0.196563 -4.11196e-16 0)
(0.19744 -4.11188e-16 0)
(0.198319 -4.11164e-16 0)
(0.199202 -4.11137e-16 0)
(0.200087 -4.11122e-16 0)
(0.200975 -4.11146e-16 0)
(0.201865 -4.11137e-16 0)
(0.202759 -4.11097e-16 0)
(0.203655 -4.11047e-16 0)
(0.204554 -4.11058e-16 0)
(0.205456 -4.1107e-16 0)
(0.20636 -4.11054e-16 0)
(0.207268 -4.11061e-16 0)
(0.208178 -4.11063e-16 0)
(0.209091 -4.11022e-16 0)
(0.210006 -4.11007e-16 0)
(0.210924 -4.10953e-16 0)
(0.211846 -4.1091e-16 0)
(0.21277 -4.10886e-16 0)
(0.213697 -4.10938e-16 0)
(0.214626 -4.10994e-16 0)
(0.215558 -4.11012e-16 0)
(0.216493 -4.11027e-16 0)
(0.217431 -4.11001e-16 0)
(0.218372 -4.10992e-16 0)
(0.219315 -4.11025e-16 0)
(0.220262 -4.10998e-16 0)
(0.22121 -4.10986e-16 0)
(0.222162 -4.10967e-16 0)
(0.223117 -4.1095e-16 0)
(0.224074 -4.10936e-16 0)
(0.225034 -4.10943e-16 0)
(0.225997 -4.10939e-16 0)
(0.226963 -4.10931e-16 0)
(0.227931 -4.10914e-16 0)
(0.228903 -4.10873e-16 0)
(0.229877 -4.10776e-16 0)
(0.230854 -4.10774e-16 0)
(0.231833 -4.10838e-16 0)
(0.232816 -4.10875e-16 0)
(0.233801 -4.10788e-16 0)
(0.234789 -4.10707e-16 0)
(0.23578 -4.10747e-16 0)
(0.236774 -4.10815e-16 0)
(0.23777 -4.10863e-16 0)
(0.238769 -4.10817e-16 0)
(0.239771 -4.10779e-16 0)
(0.240776 -4.10811e-16 0)
(0.241784 -4.10821e-16 0)
(0.242794 -4.10834e-16 0)
(0.243807 -4.10866e-16 0)
(0.244824 -4.10892e-16 0)
(0.245842 -4.109e-16 0)
(0.246864 -4.10869e-16 0)
(0.247889 -4.10861e-16 0)
(0.248916 -4.10843e-16 0)
(0.249946 -4.10832e-16 0)
(0.250979 -4.10761e-16 0)
(0.252015 -4.10727e-16 0)
(0.253053 -4.10804e-16 0)
(0.254095 -4.10834e-16 0)
(0.255139 -4.10799e-16 0)
(0.256186 -4.10778e-16 0)
(0.257236 -4.10698e-16 0)
(0.258289 -4.1062e-16 0)
(0.259344 -4.10568e-16 0)
(0.260402 -4.10535e-16 0)
(0.261463 -4.10541e-16 0)
(0.262528 -4.10598e-16 0)
(0.263594 -4.10683e-16 0)
(0.264664 -4.10743e-16 0)
(0.265737 -4.10704e-16 0)
(0.266812 -4.10714e-16 0)
(0.26789 -4.10741e-16 0)
(0.268971 -4.10665e-16 0)
(0.270055 -4.10589e-16 0)
(0.271141 -4.10575e-16 0)
(0.272231 -4.10577e-16 0)
(0.273323 -4.10553e-16 0)
(0.274418 -4.10547e-16 0)
(0.275517 -4.10541e-16 0)
(0.276617 -4.10408e-16 0)
(0.277721 -4.10327e-16 0)
(0.278828 -4.10336e-16 0)
(0.279938 -4.10346e-16 0)
(0.28105 -4.10334e-16 0)
(0.282165 -4.10178e-16 0)
(0.283283 -4.10105e-16 0)
(0.284404 -4.10082e-16 0)
(0.285528 -4.10058e-16 0)
(0.286655 -4.10022e-16 0)
(0.287784 -4.09906e-16 0)
(0.288917 -4.0983e-16 0)
(0.290052 -4.0983e-16 0)
(0.29119 -4.09866e-16 0)
(0.292331 -4.09868e-16 0)
(0.293475 -4.09852e-16 0)
(0.294622 -4.09828e-16 0)
(0.295772 -4.09826e-16 0)
(0.296924 -4.09852e-16 0)
(0.298079 -4.09862e-16 0)
(0.299238 -4.0989e-16 0)
(0.300399 -4.09943e-16 0)
(0.301563 -4.09877e-16 0)
(0.30273 -4.09699e-16 0)
(0.3039 -4.09688e-16 0)
(0.305073 -4.09673e-16 0)
(0.306249 -4.09659e-16 0)
(0.307428 -4.09711e-16 0)
(0.308609 -4.09638e-16 0)
(0.309794 -4.09656e-16 0)
(0.310981 -4.09788e-16 0)
(0.312172 -4.09823e-16 0)
(0.313365 -4.09794e-16 0)
(0.314561 -4.09841e-16 0)
(0.31576 -4.0989e-16 0)
(0.316962 -4.09873e-16 0)
(0.318167 -4.09801e-16 0)
(0.319375 -4.09747e-16 0)
(0.320586 -4.09687e-16 0)
(0.3218 -4.09666e-16 0)
(0.323016 -4.09596e-16 0)
(0.324236 -4.09537e-16 0)
(0.325459 -4.09537e-16 0)
(0.326684 -4.09567e-16 0)
(0.327913 -4.09636e-16 0)
(0.329144 -4.09594e-16 0)
(0.330379 -4.09531e-16 0)
(0.331616 -4.09537e-16 0)
(0.332857 -4.09476e-16 0)
(0.3341 -4.09352e-16 0)
(0.335346 -4.09175e-16 0)
(0.336595 -4.09111e-16 0)
(0.337848 -4.09192e-16 0)
(0.339103 -4.09284e-16 0)
(0.340361 -4.09323e-16 0)
(0.341622 -4.09267e-16 0)
(0.342886 -4.09166e-16 0)
(0.344153 -4.09079e-16 0)
(0.345423 -4.09019e-16 0)
(0.346697 -4.08922e-16 0)
(0.347973 -4.08839e-16 0)
(0.349252 -4.08642e-16 0)
(0.350534 -4.08541e-16 0)
(0.351819 -4.08615e-16 0)
(0.353107 -4.086e-16 0)
(0.354398 -4.08543e-16 0)
(0.355692 -4.0855e-16 0)
(0.356989 -4.08585e-16 0)
(0.35829 -4.08694e-16 0)
(0.359593 -4.08739e-16 0)
(0.360899 -4.08765e-16 0)
(0.362208 -4.08854e-16 0)
(0.363521 -4.08871e-16 0)
(0.364836 -4.08842e-16 0)
(0.366154 -4.08696e-16 0)
(0.367476 -4.0856e-16 0)
(0.3688 -4.08525e-16 0)
(0.370128 -4.08441e-16 0)
(0.371458 -4.08244e-16 0)
(0.372792 -4.08097e-16 0)
(0.374128 -4.08172e-16 0)
(0.375468 -4.0836e-16 0)
(0.376811 -4.08399e-16 0)
(0.378157 -4.08324e-16 0)
(0.379505 -4.08212e-16 0)
(0.380857 -4.08084e-16 0)
(0.382212 -4.08035e-16 0)
(0.38357 -4.08293e-16 0)
(0.384932 -4.08675e-16 0)
(0.386296 -4.08637e-16 0)
(0.387663 -4.08397e-16 0)
(0.389034 -4.08288e-16 0)
(0.390407 -4.08242e-16 0)
(0.391784 -4.08185e-16 0)
(0.393164 -4.08125e-16 0)
(0.394546 -4.08162e-16 0)
(0.395932 -4.0821e-16 0)
(0.397322 -4.08227e-16 0)
(0.398714 -4.08212e-16 0)
(0.400109 -4.08113e-16 0)
(0.401508 -4.07842e-16 0)
(0.40291 -4.07616e-16 0)
(0.404315 -4.07395e-16 0)
(0.405723 -4.07142e-16 0)
(0.407134 -4.06953e-16 0)
(0.408549 -4.06877e-16 0)
(0.409966 -4.07037e-16 0)
(0.411387 -4.0715e-16 0)
(0.412811 -4.07084e-16 0)
(0.414238 -4.06925e-16 0)
(0.415668 -4.06796e-16 0)
(0.417101 -4.06748e-16 0)
(0.418538 -4.06578e-16 0)
(0.419977 -4.06457e-16 0)
(0.42142 -4.06458e-16 0)
(0.422866 -4.06389e-16 0)
(0.424315 -4.06222e-16 0)
(0.425767 -4.06084e-16 0)
(0.427223 -4.06e-16 0)
(0.428681 -4.05903e-16 0)
(0.430143 -4.05776e-16 0)
(0.431608 -4.05564e-16 0)
(0.433076 -4.05605e-16 0)
(0.434547 -4.0577e-16 0)
(0.436022 -4.05699e-16 0)
(0.4375 -4.05432e-16 0)
(0.438981 -4.0498e-16 0)
(0.440465 -4.04795e-16 0)
(0.441952 -4.05117e-16 0)
(0.443443 -4.05472e-16 0)
(0.444936 -4.0558e-16 0)
(0.446433 -4.05482e-16 0)
(0.447934 -4.05395e-16 0)
(0.449437 -4.05408e-16 0)
(0.450944 -4.05375e-16 0)
(0.452453 -4.05378e-16 0)
(0.453966 -4.05475e-16 0)
(0.455483 -4.05774e-16 0)
(0.457002 -4.06038e-16 0)
(0.458524 -4.05983e-16 0)
(0.46005 -4.05788e-16 0)
(0.46158 -4.05674e-16 0)
(0.463113 -4.05793e-16 0)
(0.464648 -4.05907e-16 0)
(0.466186 -4.05887e-16 0)
(0.467729 -4.05873e-16 0)
(0.469275 -4.05936e-16 0)
(0.470823 -4.06128e-16 0)
(0.472375 -4.06193e-16 0)
(0.473931 -4.06008e-16 0)
(0.47549 -4.06024e-16 0)
(0.477052 -4.05708e-16 0)
(0.478618 -4.05256e-16 0)
(0.480185 -4.05091e-16 0)
(0.481756 -4.05026e-16 0)
(0.483332 -4.0517e-16 0)
(0.48491 -4.05214e-16 0)
(0.48649 -4.05146e-16 0)
(0.488075 -4.04969e-16 0)
(0.489664 -4.04719e-16 0)
(0.491256 -4.04659e-16 0)
(0.492851 -4.04619e-16 0)
(0.494448 -4.04477e-16 0)
(0.496048 -4.04237e-16 0)
(0.497653 -4.03778e-16 0)
(0.499261 -4.03308e-16 0)
(0.500873 -4.03064e-16 0)
(0.502486 -4.02948e-16 0)
(0.504104 -4.0285e-16 0)
(0.505726 -4.02689e-16 0)
(0.50735 -4.02626e-16 0)
(0.508977 -4.0254e-16 0)
(0.510608 -4.0253e-16 0)
(0.512242 -4.02791e-16 0)
(0.51388 -4.03417e-16 0)
(0.515522 -4.03636e-16 0)
(0.517166 -4.02907e-16 0)
(0.518813 -4.02283e-16 0)
(0.520465 -4.02282e-16 0)
(0.52212 -4.0252e-16 0)
(0.523777 -4.02774e-16 0)
(0.525438 -4.02882e-16 0)
(0.527102 -4.03358e-16 0)
(0.52877 -4.03459e-16 0)
(0.530441 -4.02682e-16 0)
(0.532115 -4.01832e-16 0)
(0.533791 -4.01449e-16 0)
(0.535473 -4.01608e-16 0)
(0.537157 -4.01876e-16 0)
(0.538845 -4.02635e-16 0)
(0.540536 -4.03203e-16 0)
(0.54223 -4.03735e-16 0)
(0.543929 -4.04493e-16 0)
(0.545631 -4.04772e-16 0)
(0.547335 -4.04624e-16 0)
(0.549043 -4.04406e-16 0)
(0.550754 -4.04423e-16 0)
(0.552469 -4.0456e-16 0)
(0.554187 -4.04334e-16 0)
(0.555908 -4.04346e-16 0)
(0.557633 -4.04745e-16 0)
(0.55936 -4.04632e-16 0)
(0.561091 -4.03767e-16 0)
(0.562827 -4.02932e-16 0)
(0.564565 -4.02496e-16 0)
(0.566306 -4.02117e-16 0)
(0.568051 -4.01559e-16 0)
(0.5698 -4.01482e-16 0)
(0.571552 -4.02103e-16 0)
(0.573306 -4.02576e-16 0)
(0.575065 -4.02972e-16 0)
(0.576827 -4.02924e-16 0)
(0.578592 -4.01723e-16 0)
(0.580361 -4.00487e-16 0)
(0.582133 -4.00182e-16 0)
(0.583908 -4.0017e-16 0)
(0.585686 -4.00103e-16 0)
(0.587468 -3.99915e-16 0)
(0.589254 -3.99741e-16 0)
(0.591043 -3.99914e-16 0)
(0.592834 -4.0008e-16 0)
(0.59463 -4.00052e-16 0)
(0.59643 -4.00306e-16 0)
(0.598232 -4.00596e-16 0)
(0.600038 -4.0047e-16 0)
(0.601847 -4.00213e-16 0)
(0.60366 -3.99986e-16 0)
(0.605476 -3.99811e-16 0)
(0.607295 -3.99773e-16 0)
(0.609117 -3.99732e-16 0)
(0.610942 -3.99717e-16 0)
(0.612772 -3.99681e-16 0)
(0.614605 -3.99906e-16 0)
(0.616441 -4.00178e-16 0)
(0.618281 -4.00306e-16 0)
(0.620125 -3.99944e-16 0)
(0.62197 -3.99565e-16 0)
(0.623819 -3.99617e-16 0)
(0.625672 -3.99827e-16 0)
(0.627529 -4.00359e-16 0)
(0.629389 -4.0137e-16 0)
(0.631252 -4.02294e-16 0)
(0.633118 -4.02347e-16 0)
(0.634988 -4.01521e-16 0)
(0.636862 -4.00209e-16 0)
(0.638738 -3.99549e-16 0)
(0.640618 -3.9941e-16 0)
(0.6425 -3.99365e-16 0)
(0.644387 -3.99591e-16 0)
(0.646278 -3.99697e-16 0)
(0.648171 -3.99755e-16 0)
(0.650068 -3.99465e-16 0)
(0.651968 -3.99146e-16 0)
(0.653871 -3.99314e-16 0)
(0.655778 -3.99585e-16 0)
(0.657688 -3.99338e-16 0)
(0.659601 -3.98737e-16 0)
(0.661518 -3.9781e-16 0)
(0.663438 -3.96983e-16 0)
(0.665361 -3.96777e-16 0)
(0.667288 -3.96339e-16 0)
(0.669218 -3.95978e-16 0)
(0.671152 -3.95917e-16 0)
(0.673089 -3.95707e-16 0)
(0.675029 -3.95646e-16 0)
(0.676973 -3.95785e-16 0)
(0.678919 -3.95616e-16 0)
(0.680868 -3.95581e-16 0)
(0.682822 -3.95693e-16 0)
(0.684779 -3.95706e-16 0)
(0.686739 -3.95661e-16 0)
(0.688702 -3.95603e-16 0)
(0.690668 -3.95826e-16 0)
(0.692638 -3.95743e-16 0)
(0.694611 -3.95413e-16 0)
(0.696587 -3.95279e-16 0)
(0.698567 -3.95052e-16 0)
(0.70055 -3.95126e-16 0)
(0.702536 -3.95215e-16 0)
(0.704526 -3.95057e-16 0)
(0.706518 -3.94701e-16 0)
(0.708514 -3.94375e-16 0)
(0.710513 -3.94009e-16 0)
(0.712516 -3.93393e-16 0)
(0.714521 -3.93709e-16 0)
(0.71653 -3.94064e-16 0)
(0.718543 -3.93341e-16 0)
(0.720558 -3.91895e-16 0)
(0.722576 -3.91016e-16 0)
(0.724598 -3.91228e-16 0)
(0.726624 -3.91339e-16 0)
(0.728652 -3.90825e-16 0)
(0.730683 -3.89934e-16 0)
(0.732718 -3.89313e-16 0)
(0.734756 -3.88789e-16 0)
(0.736797 -3.88311e-16 0)
(0.738841 -3.87478e-16 0)
(0.740888 -3.86744e-16 0)
(0.742938 -3.85977e-16 0)
(0.744991 -3.85003e-16 0)
(0.747047 -3.84609e-16 0)
(0.749107 -3.84699e-16 0)
(0.75117 -3.84992e-16 0)
(0.753237 -3.84904e-16 0)
(0.755306 -3.83933e-16 0)
(0.757377 -3.82864e-16 0)
(0.759452 -3.82723e-16 0)
(0.761531 -3.83044e-16 0)
(0.763613 -3.83364e-16 0)
(0.765697 -3.83811e-16 0)
(0.767784 -3.83658e-16 0)
(0.769875 -3.82263e-16 0)
(0.771969 -3.8173e-16 0)
(0.774066 -3.82321e-16 0)
(0.776165 -3.8312e-16 0)
(0.778268 -3.83354e-16 0)
(0.780375 -3.82951e-16 0)
(0.782483 -3.83057e-16 0)
(0.784594 -3.83339e-16 0)
(0.786709 -3.83561e-16 0)
(0.788826 -3.83542e-16 0)
(0.790948 -3.82212e-16 0)
(0.793071 -3.80216e-16 0)
(0.795198 -3.7843e-16 0)
(0.797327 -3.77244e-16 0)
(0.799459 -3.76931e-16 0)
(0.801595 -3.76628e-16 0)
(0.803732 -3.76348e-16 0)
(0.805873 -3.7605e-16 0)
(0.808017 -3.75933e-16 0)
(0.810164 -3.75124e-16 0)
(0.812314 -3.74936e-16 0)
(0.814466 -3.75805e-16 0)
(0.816621 -3.75415e-16 0)
(0.818779 -3.74654e-16 0)
(0.82094 -3.74409e-16 0)
(0.823103 -3.73757e-16 0)
(0.825269 -3.72637e-16 0)
(0.827438 -3.72108e-16 0)
(0.82961 -3.71742e-16 0)
(0.831785 -3.71655e-16 0)
(0.833962 -3.72075e-16 0)
(0.836142 -3.71751e-16 0)
(0.838324 -3.70936e-16 0)
(0.840509 -3.70695e-16 0)
(0.842697 -3.71023e-16 0)
(0.844888 -3.71261e-16 0)
(0.847081 -3.71188e-16 0)
(0.849276 -3.7102e-16 0)
(0.851474 -3.71009e-16 0)
(0.853675 -3.71456e-16 0)
(0.855878 -3.72114e-16 0)
(0.858084 -3.72583e-16 0)
(0.860293 -3.72481e-16 0)
(0.862503 -3.72487e-16 0)
(0.864717 -3.71233e-16 0)
(0.866933 -3.69402e-16 0)
(0.869151 -3.6858e-16 0)
(0.871371 -3.67834e-16 0)
(0.873594 -3.68282e-16 0)
(0.87582 -3.68426e-16 0)
(0.878047 -3.6728e-16 0)
(0.880277 -3.65904e-16 0)
(0.88251 -3.65498e-16 0)
(0.884745 -3.65293e-16 0)
(0.886982 -3.64612e-16 0)
(0.889221 -3.6374e-16 0)
(0.891461 -3.62831e-16 0)
(0.893705 -3.62595e-16 0)
(0.895951 -3.62509e-16 0)
(0.898199 -3.6206e-16 0)
(0.90045 -3.62014e-16 0)
(0.902702 -3.61762e-16 0)
(0.904956 -3.60611e-16 0)
(0.907213 -3.60084e-16 0)
(0.909471 -3.59147e-16 0)
(0.911732 -3.58933e-16 0)
(0.913994 -3.59043e-16 0)
(0.916258 -3.57568e-16 0)
(0.918525 -3.54704e-16 0)
(0.920793 -3.52263e-16 0)
(0.923064 -3.5133e-16 0)
(0.925336 -3.50593e-16 0)
(0.92761 -3.49836e-16 0)
(0.929886 -3.48991e-16 0)
(0.932163 -3.49564e-16 0)
(0.934442 -3.50778e-16 0)
(0.936723 -3.5084e-16 0)
(0.939006 -3.49569e-16 0)
(0.94129 -3.47251e-16 0)
(0.943577 -3.45479e-16 0)
(0.945864 -3.44697e-16 0)
(0.948153 -3.43595e-16 0)
(0.950444 -3.41786e-16 0)
(0.952735 -3.39398e-16 0)
(0.955029 -3.38051e-16 0)
(0.957324 -3.38124e-16 0)
(0.959621 -3.38074e-16 0)
(0.961919 -3.38217e-16 0)
(0.964218 -3.38898e-16 0)
(0.966519 -3.38654e-16 0)
(0.96882 -3.37902e-16 0)
(0.971123 -3.36544e-16 0)
(0.973428 -3.34596e-16 0)
(0.975734 -3.35499e-16 0)
(0.97804 -3.36854e-16 0)
(0.980348 -3.36191e-16 0)
(0.982657 -3.35228e-16 0)
(0.984966 -3.34454e-16 0)
(0.987276 -3.34327e-16 0)
(0.989588 -3.33473e-16 0)
(0.9919 -3.31402e-16 0)
(0.994213 -3.30056e-16 0)
(0.996527 -3.29424e-16 0)
(0.998842 -3.29757e-16 0)
(1.00116 -3.27027e-16 0)
(1.00347 -3.23521e-16 0)
(1.00579 -3.21887e-16 0)
(1.00811 -3.19161e-16 0)
(1.01043 -3.16783e-16 0)
(1.01274 -3.16299e-16 0)
(1.01506 -3.17438e-16 0)
(1.01738 -3.1831e-16 0)
(1.0197 -3.18939e-16 0)
(1.02202 -3.18024e-16 0)
(1.02434 -3.17143e-16 0)
(1.02666 -3.17271e-16 0)
(1.02898 -3.16866e-16 0)
(1.0313 -3.13634e-16 0)
(1.03362 -3.10517e-16 0)
(1.03594 -3.10062e-16 0)
(1.03826 -3.0969e-16 0)
(1.04058 -3.0765e-16 0)
(1.0429 -3.05789e-16 0)
(1.04522 -3.05309e-16 0)
(1.04754 -3.04646e-16 0)
(1.04986 -3.04115e-16 0)
(1.05218 -3.03931e-16 0)
(1.0545 -3.04269e-16 0)
(1.05682 -3.04273e-16 0)
(1.05913 -3.04427e-16 0)
(1.06145 -3.04773e-16 0)
(1.06376 -3.06533e-16 0)
(1.06608 -3.09076e-16 0)
(1.06839 -3.12434e-16 0)
(1.07071 -3.14973e-16 0)
(1.07302 -3.13539e-16 0)
(1.07533 -3.11206e-16 0)
(1.07764 -3.09907e-16 0)
(1.07995 -3.0467e-16 0)
(1.08225 -2.96638e-16 0)
(1.08456 -2.93358e-16 0)
(1.08686 -2.94137e-16 0)
(1.08916 -2.96027e-16 0)
(1.09147 -2.947e-16 0)
(1.09376 -2.91421e-16 0)
(1.09606 -2.90312e-16 0)
(1.09836 -2.89483e-16 0)
(1.10065 -2.83158e-16 0)
(1.10294 -2.77466e-16 0)
(1.10523 -2.77067e-16 0)
(1.10752 -2.76061e-16 0)
(1.1098 -2.75695e-16 0)
(1.11209 -2.73973e-16 0)
(1.11437 -2.69516e-16 0)
(1.11664 -2.65329e-16 0)
(1.11892 -2.59841e-16 0)
(1.12119 -2.55137e-16 0)
(1.12346 -2.54438e-16 0)
(1.12573 -2.57017e-16 0)
(1.12799 -2.61748e-16 0)
(1.13025 -2.62851e-16 0)
(1.13251 -2.56407e-16 0)
(1.13476 -2.51189e-16 0)
(1.13701 -2.5205e-16 0)
(1.13926 -2.47902e-16 0)
(1.1415 -2.41568e-16 0)
(1.14374 -2.39475e-16 0)
(1.14598 -2.38834e-16 0)
(1.14821 -2.37544e-16 0)
(1.15044 -2.35294e-16 0)
(1.15266 -2.33867e-16 0)
(1.15488 -2.31928e-16 0)
(1.15709 -2.32045e-16 0)
(1.1593 -2.32179e-16 0)
(1.16151 -2.28653e-16 0)
(1.16371 -2.23585e-16 0)
(1.16591 -2.1803e-16 0)
(1.1681 -2.15855e-16 0)
(1.17028 -2.16018e-16 0)
(1.17246 -2.13746e-16 0)
(1.17464 -2.09038e-16 0)
(1.17681 -2.05273e-16 0)
(1.17897 -2.06774e-16 0)
(1.18113 -2.11738e-16 0)
(1.18328 -2.15188e-16 0)
(1.18543 -2.1482e-16 0)
(1.18757 -2.12948e-16 0)
(1.1897 -2.11632e-16 0)
(1.19183 -2.09132e-16 0)
(1.19395 -2.05147e-16 0)
(1.19606 -2.05159e-16 0)
(1.19816 -2.07511e-16 0)
(1.20026 -2.11058e-16 0)
(1.20236 -2.13241e-16 0)
(1.20444 -2.0994e-16 0)
(1.20652 -2.0648e-16 0)
(1.20859 -2.07728e-16 0)
(1.21065 -2.10611e-16 0)
(1.2127 -2.09631e-16 0)
(1.21474 -2.07467e-16 0)
(1.21678 -2.05201e-16 0)
(1.21881 -2.02208e-16 0)
(1.22083 -2.01111e-16 0)
(1.22284 -2.00036e-16 0)
(1.22484 -1.97149e-16 0)
(1.22683 -1.9674e-16 0)
(1.22881 -1.96798e-16 0)
(1.23079 -1.94626e-16 0)
(1.23275 -1.89453e-16 0)
(1.2347 -1.85391e-16 0)
(1.23665 -1.85981e-16 0)
(1.23858 -1.85401e-16 0)
(1.2405 -1.82233e-16 0)
(1.24241 -1.81383e-16 0)
(1.24431 -1.83651e-16 0)
(1.2462 -1.85246e-16 0)
(1.24808 -1.85452e-16 0)
(1.24995 -1.85076e-16 0)
(1.2518 -1.82894e-16 0)
(1.25365 -1.79314e-16 0)
(1.25548 -1.76633e-16 0)
(1.2573 -1.73455e-16 0)
(1.2591 -1.74492e-16 0)
(1.2609 -1.80311e-16 0)
(1.26268 -1.83128e-16 0)
(1.26444 -1.86359e-16 0)
(1.2662 -1.90136e-16 0)
(1.26794 -1.9048e-16 0)
(1.26966 -1.89114e-16 0)
(1.27138 -1.83573e-16 0)
(1.27307 -1.79135e-16 0)
(1.27476 -1.82031e-16 0)
(1.27643 -1.85443e-16 0)
(1.27808 -1.86928e-16 0)
(1.27972 -1.86644e-16 0)
(1.28134 -1.89099e-16 0)
(1.28295 -1.94081e-16 0)
(1.28455 -1.94969e-16 0)
(1.28612 -1.93135e-16 0)
(1.28768 -1.91451e-16 0)
(1.28923 -1.89316e-16 0)
(1.29075 -1.86079e-16 0)
(1.29226 -1.82696e-16 0)
(1.29375 -1.81846e-16 0)
(1.29523 -1.82815e-16 0)
(1.29669 -1.82347e-16 0)
(1.29813 -1.79388e-16 0)
(1.29955 -1.73734e-16 0)
(1.30095 -1.70364e-16 0)
(1.30234 -1.68855e-16 0)
(1.3037 -1.69991e-16 0)
(1.30505 -1.7242e-16 0)
(1.30637 -1.78765e-16 0)
(1.30768 -1.85774e-16 0)
(1.30897 -1.85413e-16 0)
(1.31023 -1.83733e-16 0)
(1.31148 -1.81549e-16 0)
(1.31271 -1.79321e-16 0)
(1.31391 -1.75048e-16 0)
(1.3151 -1.6088e-16 0)
(1.31626 -1.52736e-16 0)
(1.3174 -1.54877e-16 0)
(1.31852 -1.53931e-16 0)
(1.31961 -1.45374e-16 0)
(1.32069 -1.38345e-16 0)
(1.32174 -1.37266e-16 0)
(1.32276 -1.30033e-16 0)
(1.32377 -1.24046e-16 0)
(1.32475 -1.2091e-16 0)
(1.32571 -1.15857e-16 0)
(1.32664 -1.13784e-16 0)
(1.32755 -1.12743e-16 0)
(1.32843 -1.07595e-16 0)
(1.32929 -1.08229e-16 0)
(1.33012 -1.11251e-16 0)
(1.33093 -1.13289e-16 0)
(1.33171 -1.11084e-16 0)
(1.33247 -1.03236e-16 0)
(1.3332 -8.98651e-17 0)
(1.3339 -7.43686e-17 0)
(1.33457 -6.03737e-17 0)
(1.33522 -5.05736e-17 0)
(1.33584 -5.04401e-17 0)
(1.33643 -5.23173e-17 0)
(1.33699 -5.76097e-17 0)
(1.33753 -6.18974e-17 0)
(1.33803 -5.91014e-17 0)
(1.33851 -5.56288e-17 0)
(1.33895 -5.52678e-17 0)
(1.33937 -5.15831e-17 0)
(1.33975 -4.47217e-17 0)
(1.3401 -3.97915e-17 0)
(1.34043 -2.87326e-17 0)
(1.34072 -1.98328e-17 0)
(1.34097 -1.97239e-17 0)
(1.3412 -1.92944e-17 0)
(1.34139 -1.88421e-17 0)
(1.34155 -1.52991e-17 0)
(1.34168 -1.28035e-17 0)
(1.34177 -1.92301e-17 0)
(1.34183 -3.32701e-18 0)
)
;

boundaryField
{
    INLET
    {
        type            cyclic;
    }
    OUTLET
    {
        type            cyclic;
    }
    CENTER
    {
        type            symmetryPlane;
    }
    WALL
    {
        type            noSlip;
    }
    frontAndBackPlanes
    {
        type            empty;
    }
}


// ************************************************************************* //
