/*--------------------------------*- C++ -*----------------------------------*\
| =========                 |                                                 |
| \\      /  F ield         | OpenFOAM: The Open Source CFD Toolbox           |
|  \\    /   O peration     | Version:  v1806                                 |
|   \\  /    A nd           | Web:      www.OpenFOAM.com                      |
|    \\/     M anipulation  |                                                 |
\*---------------------------------------------------------------------------*/
FoamFile
{
    version     2.0;
    format      ascii;
    class       volScalarField;
    location    "10000";
    object      epsilon;
}
// * * * * * * * * * * * * * * * * * * * * * * * * * * * * * * * * * * * * * //

dimensions      [0 2 -3 0 0 0 0];


internalField   nonuniform List<scalar> 
1025
(
0.000242096
0.000730446
0.00122309
0.00171995
0.00222104
0.00272641
0.0032361
0.00375016
0.00426866
0.00479166
0.00531922
0.00585143
0.00638835
0.00693007
0.00747672
0.0080284
0.00858526
0.00914745
0.00971512
0.0102884
0.0108673
0.011452
0.0120424
0.0126386
0.0132404
0.0138477
0.0144605
0.0150785
0.0157016
0.0163294
0.0169617
0.0175979
0.0182376
0.0188803
0.019525
0.0201709
0.0208169
0.0214617
0.0221041
0.0227422
0.0233741
0.0239977
0.0246108
0.025211
0.0257956
0.0263623
0.0269085
0.0274319
0.0279304
0.0284021
0.0288455
0.0292593
0.0296427
0.0299953
0.0303168
0.0306077
0.0308683
0.0310995
0.0313025
0.0314784
0.0316287
0.0317551
0.031859
0.0319423
0.0320065
0.0320535
0.0320848
0.032102
0.0321066
0.0321001
0.0320839
0.0320591
0.0320269
0.0319884
0.0319446
0.0318962
0.0318442
0.0317891
0.0317317
0.0316724
0.0316119
0.0315505
0.0314886
0.0314265
0.0313647
0.0313032
0.0312424
0.0311824
0.0311235
0.0310657
0.0310091
0.0309539
0.0309002
0.0308481
0.0307975
0.0307485
0.0307012
0.0306557
0.0306118
0.0305697
0.0305293
0.0304907
0.0304538
0.0304187
0.0303853
0.0303537
0.0303238
0.0302955
0.030269
0.0302441
0.0302209
0.0301993
0.0301793
0.0301609
0.0301441
0.0301288
0.030115
0.0301028
0.030092
0.0300827
0.0300748
0.0300683
0.0300633
0.0300595
0.0300572
0.0300561
0.0300564
0.030058
0.0300608
0.0300648
0.0300701
0.0300766
0.0300843
0.0300931
0.0301031
0.0301142
0.0301265
0.0301398
0.0301542
0.0301697
0.0301862
0.0302037
0.0302222
0.0302418
0.0302623
0.0302838
0.0303062
0.0303296
0.0303539
0.0303791
0.0304052
0.0304322
0.03046
0.0304887
0.0305182
0.0305486
0.0305798
0.0306118
0.0306446
0.0306781
0.0307125
0.0307476
0.0307834
0.03082
0.0308573
0.0308953
0.0309341
0.0309735
0.0310136
0.0310544
0.0310958
0.0311379
0.0311807
0.0312241
0.0312681
0.0313128
0.031358
0.0314039
0.0314503
0.0314974
0.031545
0.0315932
0.0316419
0.0316912
0.0317411
0.0317915
0.0318424
0.0318938
0.0319458
0.0319982
0.0320512
0.0321047
0.0321586
0.032213
0.0322679
0.0323233
0.0323791
0.0324354
0.0324922
0.0325493
0.0326069
0.0326649
0.0327234
0.0327823
0.0328416
0.0329012
0.0329613
0.0330218
0.0330826
0.0331439
0.0332055
0.0332675
0.0333298
0.0333925
0.0334556
0.033519
0.0335827
0.0336468
0.0337112
0.0337759
0.033841
0.0339063
0.033972
0.034038
0.0341042
0.0341708
0.0342377
0.0343048
0.0343723
0.03444
0.034508
0.0345762
0.0346447
0.0347135
0.0347825
0.0348518
0.0349213
0.034991
0.035061
0.0351312
0.0352017
0.0352723
0.0353432
0.0354143
0.0354856
0.0355571
0.0356288
0.0357007
0.0357729
0.0358451
0.0359176
0.0359903
0.0360631
0.0361361
0.0362093
0.0362827
0.0363561
0.0364298
0.0365036
0.0365776
0.0366517
0.0367259
0.0368003
0.0368749
0.0369495
0.0370243
0.0370992
0.0371743
0.0372494
0.0373247
0.0374
0.0374755
0.0375511
0.0376268
0.0377026
0.0377784
0.0378544
0.0379305
0.0380066
0.0380828
0.0381591
0.0382355
0.038312
0.0383885
0.0384651
0.0385417
0.0386184
0.0386951
0.038772
0.0388488
0.0389257
0.0390027
0.0390796
0.0391567
0.0392337
0.0393108
0.0393879
0.0394651
0.0395422
0.0396194
0.0396966
0.0397738
0.0398511
0.0399283
0.0400055
0.0400828
0.04016
0.0402373
0.0403145
0.0403917
0.0404689
0.0405461
0.0406233
0.0407005
0.0407776
0.0408547
0.0409318
0.0410089
0.0410859
0.0411629
0.0412399
0.0413168
0.0413937
0.0414705
0.0415473
0.041624
0.0417007
0.0417773
0.0418539
0.0419304
0.0420069
0.0420832
0.0421596
0.0422358
0.0423119
0.042388
0.0424641
0.04254
0.0426159
0.0426916
0.0427673
0.0428429
0.0429184
0.0429938
0.0430692
0.0431444
0.0432195
0.0432945
0.0433694
0.0434442
0.0435189
0.0435935
0.043668
0.0437423
0.0438166
0.0438907
0.0439647
0.0440385
0.0441123
0.0441859
0.0442593
0.0443327
0.0444059
0.0444789
0.0445519
0.0446247
0.0446973
0.0447698
0.0448421
0.0449143
0.0449863
0.0450582
0.0451299
0.0452015
0.0452729
0.0453441
0.0454152
0.0454861
0.0455568
0.0456274
0.0456977
0.0457679
0.045838
0.0459078
0.0459775
0.0460469
0.0461162
0.0461853
0.0462542
0.0463229
0.0463915
0.0464598
0.0465279
0.0465958
0.0466635
0.046731
0.0467983
0.0468654
0.0469323
0.0469989
0.0470654
0.0471316
0.0471976
0.0472634
0.0473289
0.0473942
0.0474593
0.0475242
0.0475888
0.0476532
0.0477174
0.0477813
0.047845
0.0479084
0.0479716
0.0480346
0.0480973
0.0481597
0.0482219
0.0482838
0.0483455
0.0484069
0.0484681
0.048529
0.0485896
0.0486499
0.04871
0.0487698
0.0488294
0.0488886
0.0489476
0.0490063
0.0490647
0.0491229
0.0491807
0.0492383
0.0492955
0.0493525
0.0494092
0.0494656
0.0495217
0.0495775
0.0496329
0.0496881
0.049743
0.0497976
0.0498518
0.0499057
0.0499594
0.0500127
0.0500656
0.0501183
0.0501706
0.0502226
0.0502743
0.0503257
0.0503767
0.0504274
0.0504777
0.0505277
0.0505774
0.0506267
0.0506757
0.0507243
0.0507726
0.0508205
0.0508681
0.0509153
0.0509622
0.0510087
0.0510548
0.0511006
0.051146
0.051191
0.0512357
0.05128
0.0513239
0.0513674
0.0514106
0.0514534
0.0514958
0.0515378
0.0515794
0.0516206
0.0516615
0.0517019
0.051742
0.0517816
0.0518209
0.0518597
0.0518981
0.0519362
0.0519738
0.052011
0.0520478
0.0520842
0.0521201
0.0521557
0.0521908
0.0522255
0.0522597
0.0522936
0.052327
0.05236
0.0523925
0.0524246
0.0524562
0.0524875
0.0525182
0.0525485
0.0525784
0.0526078
0.0526368
0.0526653
0.0526934
0.052721
0.0527481
0.0527748
0.052801
0.0528268
0.052852
0.0528768
0.0529011
0.052925
0.0529483
0.0529712
0.0529936
0.0530155
0.0530369
0.0530578
0.0530782
0.0530981
0.0531176
0.0531365
0.0531549
0.0531728
0.0531902
0.0532071
0.0532235
0.0532394
0.0532548
0.0532696
0.0532839
0.0532977
0.053311
0.0533238
0.053336
0.0533477
0.0533588
0.0533695
0.0533795
0.0533891
0.0533981
0.0534066
0.0534145
0.0534219
0.0534287
0.053435
0.0534407
0.0534459
0.0534505
0.0534545
0.053458
0.0534609
0.0534633
0.0534651
0.0534663
0.0534669
0.053467
0.0534665
0.0534655
0.0534638
0.0534616
0.0534587
0.0534553
0.0534514
0.0534468
0.0534416
0.0534359
0.0534295
0.0534226
0.053415
0.0534069
0.0533981
0.0533888
0.0533788
0.0533682
0.0533571
0.0533453
0.0533329
0.0533199
0.0533063
0.053292
0.0532771
0.0532617
0.0532456
0.0532288
0.0532115
0.0531935
0.0531749
0.0531557
0.0531358
0.0531153
0.0530941
0.0530724
0.0530499
0.0530269
0.0530032
0.0529788
0.0529539
0.0529282
0.052902
0.052875
0.0528475
0.0528192
0.0527904
0.0527608
0.0527306
0.0526998
0.0526683
0.0526361
0.0526033
0.0525698
0.0525357
0.0525009
0.0524654
0.0524293
0.0523924
0.052355
0.0523169
0.052278
0.0522385
0.0521984
0.0521576
0.052116
0.0520738
0.052031
0.0519874
0.0519432
0.0518983
0.0518527
0.0518065
0.0517596
0.051712
0.0516637
0.0516147
0.051565
0.0515146
0.0514636
0.0514119
0.0513595
0.0513064
0.0512526
0.0511981
0.0511429
0.0510871
0.0510305
0.0509733
0.0509153
0.0508567
0.0507974
0.0507374
0.0506767
0.0506153
0.0505532
0.0504905
0.050427
0.0503628
0.050298
0.0502325
0.0501662
0.0500993
0.0500317
0.0499633
0.0498943
0.0498246
0.0497542
0.0496831
0.0496113
0.0495389
0.0494657
0.0493918
0.0493172
0.049242
0.0491661
0.0490894
0.0490121
0.0489341
0.0488554
0.048776
0.0486959
0.0486152
0.0485337
0.0484516
0.0483688
0.0482853
0.048201
0.0481162
0.0480306
0.0479444
0.0478574
0.0477699
0.0476816
0.0475926
0.0475029
0.0474126
0.0473216
0.04723
0.0471376
0.0470446
0.0469509
0.0468566
0.0467616
0.046666
0.0465696
0.0464726
0.0463749
0.0462766
0.0461776
0.0460779
0.0459776
0.0458766
0.045775
0.0456728
0.0455699
0.0454663
0.0453621
0.0452572
0.0451517
0.0450455
0.0449388
0.0448314
0.0447233
0.0446147
0.0445053
0.0443954
0.0442848
0.0441736
0.0440618
0.0439493
0.0438363
0.0437227
0.0436084
0.0434935
0.0433779
0.0432619
0.0431452
0.0430279
0.0429099
0.0427914
0.0426724
0.0425527
0.0424324
0.0423115
0.0421901
0.0420681
0.0419455
0.0418224
0.0416986
0.0415743
0.0414494
0.0413241
0.0411981
0.0410716
0.0409445
0.0408168
0.0406886
0.0405599
0.0404307
0.0403009
0.0401705
0.0400397
0.0399084
0.0397765
0.0396441
0.0395112
0.0393777
0.0392438
0.0391093
0.0389744
0.038839
0.0387031
0.0385667
0.0384298
0.0382925
0.0381546
0.0380163
0.0378775
0.0377383
0.0375986
0.0374585
0.0373179
0.0371769
0.0370354
0.0368935
0.0367512
0.0366084
0.0364652
0.0363216
0.0361776
0.0360332
0.0358884
0.0357431
0.0355975
0.0354515
0.0353051
0.0351584
0.0350113
0.0348638
0.0347159
0.0345677
0.0344191
0.0342702
0.0341209
0.0339713
0.0338214
0.0336711
0.0335205
0.0333696
0.0332184
0.0330669
0.0329151
0.032763
0.0326106
0.032458
0.0323051
0.0321519
0.0319984
0.0318446
0.0316907
0.0315365
0.031382
0.0312273
0.0310724
0.0309172
0.0307619
0.0306063
0.0304506
0.0302947
0.0301385
0.0299822
0.0298257
0.029669
0.0295122
0.0293552
0.0291981
0.0290409
0.0288835
0.0287259
0.0285683
0.0284106
0.0282528
0.0280948
0.0279368
0.0277786
0.0276204
0.0274622
0.0273039
0.0271455
0.0269871
0.0268287
0.0266702
0.0265117
0.0263532
0.0261947
0.0260362
0.0258777
0.0257193
0.0255609
0.0254025
0.0252441
0.0250859
0.0249276
0.0247695
0.0246114
0.0244534
0.0242955
0.0241378
0.0239801
0.0238226
0.0236652
0.023508
0.0233509
0.0231939
0.0230372
0.0228806
0.0227243
0.0225681
0.0224122
0.0222564
0.0221009
0.0219457
0.0217907
0.021636
0.0214815
0.0213273
0.0211734
0.0210199
0.0208666
0.0207137
0.0205611
0.0204088
0.020257
0.0201055
0.0199543
0.0198036
0.0196533
0.0195034
0.0193539
0.0192049
0.0190563
0.0189082
0.0187605
0.0186134
0.0184667
0.0183206
0.018175
0.0180299
0.0178854
0.0177414
0.017598
0.0174552
0.017313
0.0171714
0.0170305
0.0168901
0.0167504
0.0166114
0.0164731
0.0163355
0.0161985
0.0160623
0.0159268
0.0157921
0.0156581
0.0155249
0.0153925
0.0152609
0.0151301
0.0150002
0.014871
0.0147428
0.0146154
0.0144889
0.0143633
0.0142386
0.0141149
0.0139921
0.0138702
0.0137493
0.0136295
0.0135106
0.0133927
0.0132759
0.0131601
0.0130454
0.0129317
0.0128192
0.0127077
0.0125974
0.0124882
0.0123802
0.0122733
0.0121676
0.0120631
0.0119598
0.0118578
0.0117569
0.0116574
0.0115591
0.0114621
0.0113664
0.011272
0.0111789
0.0110872
0.0109968
0.0109079
0.0108203
0.0107341
0.0106493
0.010566
0.0104842
0.0104038
0.0103248
0.0102474
0.0101715
0.0100971
0.0100243
0.00995303
0.00988333
0.00981523
0.00974874
0.00968387
0.00962064
0.00955907
0.00949918
0.00944099
0.0093845
0.00932973
0.00927671
0.00922545
0.00917598
0.0091283
0.00908244
0.00903842
0.00899627
0.00895599
0.0089176
0.00888113
0.00884661
0.00881404
0.00878346
0.00875489
0.00872835
0.00870387
0.00868147
0.00866118
0.00864302
0.00862703
0.00861322
0.00860164
0.0085923
0.00858524
0.00858049
0.00857809
)
;

boundaryField
{
    INLET
    {
        type            cyclic;
    }
    OUTLET
    {
        type            cyclic;
    }
    CENTER
    {
        type            symmetryPlane;
    }
    WALL
    {
        type            fixedValue;
        value           uniform 1e-08;
    }
    frontAndBackPlanes
    {
        type            empty;
    }
}


// ************************************************************************* //
