/*--------------------------------*- C++ -*----------------------------------*\
| =========                 |                                                 |
| \\      /  F ield         | OpenFOAM: The Open Source CFD Toolbox           |
|  \\    /   O peration     | Version:  v1806                                 |
|   \\  /    A nd           | Web:      www.OpenFOAM.com                      |
|    \\/     M anipulation  |                                                 |
\*---------------------------------------------------------------------------*/
FoamFile
{
    version     2.0;
    format      ascii;
    class       volTensorField;
    location    "10000";
    object      grad(U);
}
// * * * * * * * * * * * * * * * * * * * * * * * * * * * * * * * * * * * * * //

dimensions      [0 0 -1 0 0 0 0];


internalField   nonuniform List<tensor> 
1025
(
(1.07346e-18 0 0 27.5318 -7.95273e-12 0 0 0 0)
(0 0 0 27.5155 -2.79746e-12 0 0 0 0)
(-4.25368e-18 0 0 27.5001 4.25445e-13 0 0 0 0)
(-1.27014e-17 1.44399e-30 0 27.4858 3.19623e-13 0 0 0 0)
(0 0 0 27.4724 4.89677e-14 0 0 0 0)
(0 0 0 27.4598 -2.10616e-14 0 0 0 0)
(-1.66981e-17 9.49175e-31 0 27.4479 -7.22803e-15 0 0 0 0)
(1.66201e-17 -4.72371e-31 0 27.4365 2.23225e-15 0 0 0 0)
(1.6542e-17 0 0 27.4256 2.47641e-15 0 0 0 0)
(0 0 0 27.4149 1.18395e-15 0 0 0 0)
(0 0 0 27.4043 6.18052e-16 0 0 0 0)
(0 0 0 27.3937 4.6222e-16 0 0 0 0)
(0 0 0 27.3828 4.15102e-16 0 0 0 0)
(-3.23165e-17 9.1849e-31 0 27.3714 3.47278e-16 0 0 0 0)
(-3.21649e-17 9.14181e-31 0 27.3592 2.5473e-16 0 0 0 0)
(0 9.09913e-31 0 27.3459 1.7327e-16 0 0 0 0)
(-3.18644e-17 9.05641e-31 0 27.3311 1.23068e-16 0 0 0 0)
(0 0 0 27.3145 8.14982e-17 0 0 0 0)
(0 0 0 27.2955 7.12896e-17 0 0 0 0)
(-3.14181e-17 0 0 27.2734 4.88693e-17 0 0 0 0)
(0 0 0 27.2478 2.24542e-17 0 0 0 0)
(0 -4.4231e-31 0 27.2176 1.82104e-18 0 0 0 0)
(3.09791e-17 -4.40239e-31 0 27.1821 -1.18366e-17 0 0 0 0)
(0 0 0 27.1402 -2.63061e-17 0 0 0 0)
(9.20667e-17 -1.30835e-30 0 27.0906 -2.40643e-17 0 0 0 0)
(6.10888e-17 0 0 27.0319 -3.17328e-17 0 0 0 0)
(0 0 0 26.9626 1.60743e-17 0 0 0 0)
(0 0 0 26.8808 2.80232e-18 0 0 0 0)
(0 -4.28036e-31 0 26.7846 1.69943e-17 0 0 0 0)
(0 8.52e-31 0 26.672 1.11032e-16 0 0 0 0)
(0 0 0 26.5406 -9.31513e-18 0 0 0 0)
(1.18805e-16 0 0 26.3881 6.39728e-17 0 0 0 0)
(0 0 0 26.2122 1.25574e-16 0 0 0 0)
(-5.88348e-17 8.36093e-31 0 26.0105 1.14139e-17 0 0 0 0)
(0 0 0 25.781 6.9644e-18 0 0 0 0)
(0 0 0 25.5218 -2.90029e-17 0 0 0 0)
(0 0 0 25.2316 1.27662e-17 0 0 0 0)
(0 0 0 24.9094 7.13707e-17 0 0 0 0)
(-1.14936e-16 0 0 24.5549 -3.21108e-17 0 0 0 0)
(-5.72072e-17 0 0 24.1686 -4.77397e-17 0 0 0 0)
(0 0 0 23.7516 3.94285e-17 0 0 0 0)
(-5.66683e-17 8.05305e-31 0 23.3058 4.30828e-17 0 0 0 0)
(-5.64027e-17 0 0 22.8334 1.30381e-17 0 0 0 0)
(5.61395e-17 -7.9779e-31 0 22.3375 -1.96362e-17 0 0 0 0)
(0 0 0 21.8213 5.99083e-17 0 0 0 0)
(0 7.90248e-31 0 21.2884 6.80206e-17 0 0 0 0)
(0 7.86613e-31 0 20.7425 -2.60918e-17 0 0 0 0)
(0 0 0 20.1872 1.17617e-17 0 0 0 0)
(0 0 0 19.626 4.66123e-17 0 0 0 0)
(0 0 0 19.0624 2.64644e-17 0 0 0 0)
(0 0 0 18.4993 -4.46035e-17 0 0 0 0)
(1.0815e-16 0 0 17.9397 2.7182e-17 0 0 0 0)
(0 0 0 17.3862 1.71742e-17 0 0 0 0)
(-1.07143e-16 1.5226e-30 0 16.841 1.13999e-17 0 0 0 0)
(0 0 0 16.3061 9.64634e-17 0 0 0 0)
(0 0 0 15.7831 -4.33543e-17 0 0 0 0)
(0 0 0 15.2734 -1.30819e-16 0 0 0 0)
(0 0 0 14.7784 -4.49641e-17 0 0 0 0)
(0 0 0 14.2989 6.10182e-17 0 0 0 0)
(-2.083e-16 0 0 13.8355 6.50709e-17 0 0 0 0)
(-1.03661e-16 7.36554e-31 0 13.3889 5.935e-17 0 0 0 0)
(0 0 0 12.9595 1.15415e-17 0 0 0 0)
(-1.02696e-16 0 0 12.5473 -5.48241e-17 0 0 0 0)
(0 0 0 12.1524 7.45374e-18 0 0 0 0)
(0 0 0 11.7748 -3.18293e-17 0 0 0 0)
(0 -7.19507e-31 0 11.4143 -8.75488e-17 0 0 0 0)
(0 0 0 11.0705 -6.13436e-17 0 0 0 0)
(0 0 0 10.7431 6.50164e-17 0 0 0 0)
(-9.98295e-17 7.09331e-31 0 10.4317 1.14222e-16 0 0 0 0)
(-9.93797e-17 0 0 10.1358 1.3449e-16 0 0 0 0)
(-9.8897e-17 7.02705e-31 0 9.85479 1.24778e-16 0 0 0 0)
(-1.96911e-16 6.99569e-31 0 9.5882 5.3674e-17 0 0 0 0)
(1.95964e-16 0 0 9.33543 5.85262e-17 0 0 0 0)
(0 0 0 9.09585 -9.44444e-17 0 0 0 0)
(-9.70834e-17 6.89819e-31 0 8.86892 2.16604e-17 0 0 0 0)
(0 0 0 8.65403 5.99582e-17 0 0 0 0)
(0 0 0 8.45058 -1.41436e-19 0 0 0 0)
(0 0 0 8.25799 -1.87662e-17 0 0 0 0)
(0 0 0 8.07572 -1.68711e-17 0 0 0 0)
(0 0 0 7.90324 1.02828e-19 0 0 0 0)
(0 0 0 7.74002 5.22678e-17 0 0 0 0)
(0 0 0 7.58555 -2.62934e-18 0 0 0 0)
(0 0 0 7.43936 -3.45386e-17 0 0 0 0)
(0 0 0 7.30099 3.44272e-17 0 0 0 0)
(0 0 0 7.16999 -4.31115e-17 0 0 0 0)
(0 0 0 7.04599 -9.65481e-18 0 0 0 0)
(0 0 0 6.92856 -1.37299e-17 0 0 0 0)
(0 6.48884e-31 0 6.81736 3.94913e-17 0 0 0 0)
(0 0 0 6.71201 2.01833e-17 0 0 0 0)
(0 0 0 6.6122 -6.00768e-17 0 0 0 0)
(0 0 0 6.51763 -2.6327e-17 0 0 0 0)
(0 0 0 6.428 2.45682e-18 0 0 0 0)
(0 0 0 6.34303 -1.55564e-17 0 0 0 0)
(0 0 0 6.26245 -2.46043e-17 0 0 0 0)
(0 0 0 6.18604 6.35004e-17 0 0 0 0)
(-1.75879e-16 0 0 6.11355 7.36584e-17 0 0 0 0)
(0 0 0 6.04478 7.77453e-17 0 0 0 0)
(-1.74258e-16 0 0 5.97954 1.25656e-16 0 0 0 0)
(0 0 0 5.91762 1.684e-17 0 0 0 0)
(0 6.13335e-31 0 5.85885 -3.6099e-17 0 0 0 0)
(1.71826e-16 0 0 5.80306 -4.88128e-17 0 0 0 0)
(0 0 0 5.7501 -2.2665e-17 0 0 0 0)
(0 0 0 5.6998 -6.33219e-17 0 0 0 0)
(0 0 0 5.65203 -1.00628e-17 0 0 0 0)
(0 0 0 5.60667 -9.08006e-18 0 0 0 0)
(-1.67849e-16 0 0 5.56359 -2.65779e-17 0 0 0 0)
(-1.67054e-16 0 0 5.52268 1.68385e-16 0 0 0 0)
(0 0 0 5.4838 1.07073e-16 0 0 0 0)
(0 0 0 5.44688 2.97382e-17 0 0 0 0)
(0 0 0 5.41181 1.22437e-16 0 0 0 0)
(-1.63925e-16 0 0 5.3785 6.95617e-17 0 0 0 0)
(0 0 0 5.34686 9.40326e-17 0 0 0 0)
(0 0 0 5.31681 7.3717e-17 0 0 0 0)
(0 0 0 5.28827 -6.28017e-17 0 0 0 0)
(0 -5.71582e-31 0 5.26117 -4.45174e-17 0 0 0 0)
(0 0 0 5.23543 -2.29439e-17 0 0 0 0)
(1.59384e-16 -5.66247e-31 0 5.211 1.36335e-17 0 0 0 0)
(0 5.63617e-31 0 5.18781 5.34986e-17 0 0 0 0)
(0 5.60928e-31 0 5.16579 3.64061e-17 0 0 0 0)
(0 5.58347e-31 0 5.1449 4.18021e-17 0 0 0 0)
(0 0 0 5.12509 6.04555e-17 0 0 0 0)
(0 0 0 5.10629 4.51235e-17 0 0 0 0)
(0 0 0 5.08846 1.01988e-17 0 0 0 0)
(0 0 0 5.07156 -5.27118e-18 0 0 0 0)
(0 0 0 5.05554 3.45768e-18 0 0 0 0)
(-1.52784e-16 0 0 5.04037 2.79891e-17 0 0 0 0)
(0 5.40302e-31 0 5.026 6.66036e-17 0 0 0 0)
(-1.51364e-16 0 0 5.01241 9.92435e-17 0 0 0 0)
(0 0 0 4.99954 5.55084e-17 0 0 0 0)
(0 5.32727e-31 0 4.98737 -3.46304e-17 0 0 0 0)
(0 0 0 4.97587 2.58463e-17 0 0 0 0)
(0 0 0 4.965 1.03763e-16 0 0 0 0)
(0 0 0 4.95474 4.23956e-17 0 0 0 0)
(-1.47157e-16 5.22805e-31 0 4.94506 2.14513e-17 0 0 0 0)
(0 0 0 4.93593 1.02751e-17 0 0 0 0)
(-1.45779e-16 0 0 4.92733 -4.05953e-17 0 0 0 0)
(0 0 0 4.91923 3.33317e-17 0 0 0 0)
(0 5.13036e-31 0 4.91162 4.69536e-17 0 0 0 0)
(0 0 0 4.90445 8.60502e-18 0 0 0 0)
(1.43061e-16 -5.08253e-31 0 4.89773 -3.44382e-17 0 0 0 0)
(0 0 0 4.89143 -5.18773e-17 0 0 0 0)
(0 0 0 4.88552 -2.56275e-17 0 0 0 0)
(1.41059e-16 -5.01143e-31 0 4.87999 -5.39604e-17 0 0 0 0)
(-2.80809e-16 4.98817e-31 0 4.87482 -1.48517e-17 0 0 0 0)
(-2.79475e-16 9.92895e-31 0 4.87 4.58017e-17 0 0 0 0)
(0 0 0 4.8655 5.50131e-17 0 0 0 0)
(-1.3844e-16 4.91839e-31 0 4.86133 7.2407e-17 0 0 0 0)
(-1.37792e-16 0 0 4.85745 1.19903e-16 0 0 0 0)
(0 0 0 4.85384 9.6126e-17 0 0 0 0)
(-1.36513e-16 4.8499e-31 0 4.85052 9.50638e-17 0 0 0 0)
(0 0 0 4.84745 6.85837e-17 0 0 0 0)
(0 0 0 4.84463 2.3456e-17 0 0 0 0)
(-2.69173e-16 0 0 4.84203 5.0878e-17 0 0 0 0)
(0 0 0 4.83966 -5.48082e-18 0 0 0 0)
(0 0 0 4.83749 -6.27347e-17 0 0 0 0)
(0 0 0 4.83553 -2.87714e-17 0 0 0 0)
(0 0 0 4.83376 -1.42048e-17 0 0 0 0)
(0 0 0 4.83217 -2.25009e-17 0 0 0 0)
(2.61688e-16 -1.39456e-30 0 4.83075 -6.83164e-17 0 0 0 0)
(0 0 0 4.82949 -4.59081e-17 0 0 0 0)
(0 0 0 4.82838 6.66106e-17 0 0 0 0)
(0 -4.58338e-31 0 4.82741 5.077e-17 0 0 0 0)
(0 0 0 4.82658 -2.9209e-17 0 0 0 0)
(0 0 0 4.82588 -1.51284e-17 0 0 0 0)
(0 0 0 4.8253 6.1676e-18 0 0 0 0)
(0 0 0 4.82483 -2.87987e-17 0 0 0 0)
(0 4.47754e-31 0 4.82447 6.53628e-18 0 0 0 0)
(0 0 0 4.82421 6.39593e-17 0 0 0 0)
(0 0 0 4.82404 -2.01518e-17 0 0 0 0)
(0 4.41708e-31 0 4.82398 5.8568e-17 0 0 0 0)
(-1.23691e-16 0 0 4.824 3.54376e-16 0 0 0 0)
(0 0 0 4.82404 3.28966e-17 0 0 0 0)
(0 0 0 4.82416 -1.33135e-16 0 0 0 0)
(0 4.33362e-31 0 4.82438 5.74231e-17 0 0 0 0)
(0 0 0 4.82467 1.32034e-16 0 0 0 0)
(-2.41458e-16 0 0 4.82499 -1.91529e-16 0 0 0 0)
(-2.40634e-16 0 0 4.82537 -1.88334e-16 0 0 0 0)
(2.39275e-16 -8.50075e-31 0 4.82579 3.65395e-17 0 0 0 0)
(0 0 0 4.82624 -1.30892e-16 0 0 0 0)
(2.37131e-16 0 0 4.82674 -5.13101e-17 0 0 0 0)
(-2.36074e-16 0 0 4.82729 -1.80752e-16 0 0 0 0)
(2.35026e-16 0 0 4.82788 -5.43119e-17 0 0 0 0)
(0 0 0 4.82848 -2.62743e-17 0 0 0 0)
(0 8.26721e-31 0 4.82908 -2.08176e-16 0 0 0 0)
(2.31683e-16 -8.23103e-31 0 4.82971 6.0696e-17 0 0 0 0)
(0 0 0 4.83035 6.93568e-17 0 0 0 0)
(0 0 0 4.83099 -1.14323e-16 0 0 0 0)
(0 0 0 4.83166 -1.17868e-16 0 0 0 0)
(0 0 0 4.83236 1.35348e-17 0 0 0 0)
(0 0 0 4.83306 1.9248e-16 0 0 0 0)
(0 0 0 4.83371 -1.99528e-16 0 0 0 0)
(-2.2432e-16 0 0 4.83439 5.00038e-17 0 0 0 0)
(0 7.91912e-31 0 4.83506 4.793e-17 0 0 0 0)
(-2.22202e-16 0 0 4.83572 1.03065e-17 0 0 0 0)
(0 0 0 4.83637 4.5852e-19 0 0 0 0)
(2.20123e-16 0 0 4.83701 -2.65284e-17 0 0 0 0)
(2.18759e-16 0 0 4.83763 -3.70998e-17 0 0 0 0)
(-2.18083e-16 0 0 4.83824 -1.61984e-17 0 0 0 0)
(0 0 0 4.83883 1.77834e-16 0 0 0 0)
(0 -7.66887e-31 0 4.83939 -2.86405e-16 0 0 0 0)
(0 0 0 4.83995 -1.24293e-16 0 0 0 0)
(0 0 0 4.8405 4.3907e-17 0 0 0 0)
(0 7.56097e-31 0 4.84101 8.65538e-17 0 0 0 0)
(2.11758e-16 0 0 4.84146 4.35438e-18 0 0 0 0)
(-2.10915e-16 0 0 4.8419 6.4687e-17 0 0 0 0)
(-2.09869e-16 0 0 4.84231 2.43358e-16 0 0 0 0)
(0 0 0 4.84269 -1.08728e-16 0 0 0 0)
(0 0 0 4.84304 -6.99681e-17 0 0 0 0)
(0 0 0 4.84335 -3.12238e-17 0 0 0 0)
(0 0 0 4.84361 -1.04778e-16 0 0 0 0)
(0 0 0 4.84385 2.06459e-16 0 0 0 0)
(0 0 0 4.84404 8.63499e-17 0 0 0 0)
(2.03223e-16 0 0 4.84422 1.7749e-16 0 0 0 0)
(-2.02059e-16 0 0 4.84435 2.89067e-16 0 0 0 0)
(2.011e-16 0 0 4.84441 -6.32381e-17 0 0 0 0)
(0 0 0 4.84445 -1.17389e-16 0 0 0 0)
(0 0 0 4.84446 1.63841e-16 0 0 0 0)
(0 0 0 4.84441 -4.08218e-17 0 0 0 0)
(0 0 0 4.84432 -2.70561e-17 0 0 0 0)
(0 0 0 4.84417 3.18921e-16 0 0 0 0)
(0 6.9466e-31 0 4.84396 1.49702e-16 0 0 0 0)
(0 6.92103e-31 0 4.84373 1.95815e-16 0 0 0 0)
(0 0 0 4.84346 1.86445e-16 0 0 0 0)
(0 0 0 4.84312 1.51271e-17 0 0 0 0)
(0 6.82064e-31 0 4.84274 1.57441e-16 0 0 0 0)
(1.90945e-16 0 0 4.84229 -8.83152e-17 0 0 0 0)
(0 0 0 4.8418 -1.79642e-16 0 0 0 0)
(3.78478e-16 -6.72311e-31 0 4.84127 -2.57679e-17 0 0 0 0)
(-1.88397e-16 6.69321e-31 0 4.84068 1.19996e-16 0 0 0 0)
(0 0 0 4.84003 5.62738e-17 0 0 0 0)
(0 0 0 4.83933 -3.17995e-17 0 0 0 0)
(0 0 0 4.8386 2.50303e-16 0 0 0 0)
(0 0 0 4.83778 1.89431e-16 0 0 0 0)
(0 0 0 4.83691 4.47786e-17 0 0 0 0)
(0 0 0 4.836 -1.70456e-17 0 0 0 0)
(-5.47179e-16 6.4799e-31 0 4.83506 7.35337e-17 0 0 0 0)
(0 0 0 4.83406 1.39745e-16 0 0 0 0)
(0 0 0 4.83298 -5.02161e-17 0 0 0 0)
(0 0 0 4.83184 5.98986e-17 0 0 0 0)
(0 0 0 4.83065 2.60943e-16 0 0 0 0)
(-1.78098e-16 6.3273e-31 0 4.82941 2.61606e-16 0 0 0 0)
(0 0 0 4.82812 8.63431e-17 0 0 0 0)
(-1.76465e-16 0 0 4.82677 6.53615e-17 0 0 0 0)
(0 0 0 4.82535 -1.2524e-16 0 0 0 0)
(5.24587e-16 -6.21236e-31 0 4.82389 -1.31011e-16 0 0 0 0)
(0 0 0 4.82237 -1.4345e-17 0 0 0 0)
(0 0 0 4.82079 -1.08581e-16 0 0 0 0)
(0 0 0 4.81916 7.01862e-17 0 0 0 0)
(0 0 0 4.81746 -3.16125e-17 0 0 0 0)
(3.41546e-16 -6.06707e-31 0 4.81572 8.1034e-17 0 0 0 0)
(-1.69814e-16 6.03301e-31 0 4.81392 4.508e-17 0 0 0 0)
(0 0 0 4.81206 -6.84542e-17 0 0 0 0)
(0 0 0 4.81015 2.34762e-17 0 0 0 0)
(3.35061e-16 0 0 4.80818 1.05633e-16 0 0 0 0)
(0 0 0 4.80613 4.42572e-17 0 0 0 0)
(0 0 0 4.80403 -7.48747e-17 0 0 0 0)
(-3.30356e-16 0 0 4.80188 3.40085e-17 0 0 0 0)
(-3.28817e-16 5.84097e-31 0 4.79969 1.44784e-16 0 0 0 0)
(0 5.81388e-31 0 4.79744 1.80202e-16 0 0 0 0)
(-6.51564e-16 5.78705e-31 0 4.79514 3.27425e-16 0 0 0 0)
(-3.24285e-16 1.15209e-30 0 4.79278 6.26469e-16 0 0 0 0)
(0 5.72975e-31 0 4.79035 3.98464e-16 0 0 0 0)
(-3.21089e-16 5.70369e-31 0 4.78786 3.12824e-17 0 0 0 0)
(-3.19635e-16 0 0 4.78531 -7.7311e-17 0 0 0 0)
(3.18194e-16 0 0 4.78272 -1.79489e-16 0 0 0 0)
(0 0 0 4.78009 -9.19526e-19 0 0 0 0)
(0 0 0 4.77739 7.94604e-17 0 0 0 0)
(0 0 0 4.77463 -2.51085e-17 0 0 0 0)
(0 0 0 4.77183 7.40921e-17 0 0 0 0)
(-3.10724e-16 0 0 4.76897 4.60129e-17 0 0 0 0)
(0 0 0 4.76605 3.89315e-17 0 0 0 0)
(0 0 0 4.76307 4.15361e-17 0 0 0 0)
(0 0 0 4.76004 3.41897e-17 0 0 0 0)
(-3.05127e-16 0 0 4.75697 1.92386e-16 0 0 0 0)
(0 0 0 4.75385 1.47686e-16 0 0 0 0)
(0 0 0 4.75066 1.84323e-19 0 0 0 0)
(0 0 0 4.74742 -2.79559e-18 0 0 0 0)
(-2.99305e-16 5.31672e-31 0 4.74413 5.34951e-17 0 0 0 0)
(0 0 0 4.74078 9.67554e-17 0 0 0 0)
(0 0 0 4.73738 2.80023e-16 0 0 0 0)
(0 1.04852e-30 0 4.73393 3.94002e-16 0 0 0 0)
(-2.93701e-16 0 0 4.73043 2.71993e-16 0 0 0 0)
(0 0 0 4.72687 9.94112e-17 0 0 0 0)
(-2.91077e-16 0 0 4.72326 6.1065e-17 0 0 0 0)
(0 0 0 4.71962 1.19754e-16 0 0 0 0)
(-2.88303e-16 0 0 4.71592 8.60212e-17 0 0 0 0)
(-2.86935e-16 1.0194e-30 0 4.71217 -3.0597e-17 0 0 0 0)
(2.85581e-16 0 0 4.70837 -8.65939e-17 0 0 0 0)
(0 0 0 4.70451 -8.02327e-18 0 0 0 0)
(0 5.02549e-31 0 4.70061 4.62502e-17 0 0 0 0)
(0 5.0021e-31 0 4.69666 1.11361e-17 0 0 0 0)
(0 0 0 4.69266 -3.23567e-17 0 0 0 0)
(2.78996e-16 0 0 4.68861 1.83201e-17 0 0 0 0)
(0 0 0 4.68451 -9.06171e-17 0 0 0 0)
(0 0 0 4.68037 -8.81187e-17 0 0 0 0)
(0 0 0 4.67618 1.83585e-17 0 0 0 0)
(0 0 0 4.67194 2.58533e-17 0 0 0 0)
(0 0 0 4.66766 1.83966e-16 0 0 0 0)
(0 0 0 4.66333 1.28934e-16 0 0 0 0)
(0 0 0 4.65895 -1.66835e-17 0 0 0 0)
(0 0 0 4.65453 4.17612e-17 0 0 0 0)
(0 0 0 4.65007 2.34903e-17 0 0 0 0)
(0 0 0 4.64556 1.86865e-17 0 0 0 0)
(0 0 0 4.641 4.49766e-17 0 0 0 0)
(0 0 0 4.6364 7.95667e-17 0 0 0 0)
(0 0 0 4.63176 7.53554e-18 0 0 0 0)
(2.61269e-16 0 0 4.62707 -1.1061e-16 0 0 0 0)
(-2.59986e-16 0 0 4.62235 -1.26416e-18 0 0 0 0)
(0 4.5957e-31 0 4.61757 2.95328e-17 0 0 0 0)
(0 0 0 4.61276 6.20362e-17 0 0 0 0)
(0 0 0 4.60791 5.0026e-17 0 0 0 0)
(0 4.53203e-31 0 4.60302 -3.28881e-17 0 0 0 0)
(0 0 0 4.59807 -4.5763e-17 0 0 0 0)
(0 0 0 4.5931 5.08797e-17 0 0 0 0)
(0 0 0 4.58808 4.66892e-18 0 0 0 0)
(0 0 0 4.58302 -1.11186e-16 0 0 0 0)
(0 0 0 4.57793 3.66317e-17 0 0 0 0)
(0 0 0 4.57278 2.21238e-17 0 0 0 0)
(0 0 0 4.5676 -4.47761e-17 0 0 0 0)
(4.91318e-16 -4.36378e-31 0 4.56238 -1.94163e-16 0 0 0 0)
(0 -4.34614e-31 0 4.55713 -2.16373e-16 0 0 0 0)
(-2.434e-16 0 0 4.55184 4.00532e-17 0 0 0 0)
(0 0 0 4.54651 1.18686e-16 0 0 0 0)
(0 0 0 4.54114 7.27046e-17 0 0 0 0)
(0 0 0 4.53574 -4.83235e-17 0 0 0 0)
(2.3887e-16 -8.48637e-31 0 4.53031 -1.98614e-16 0 0 0 0)
(0 8.44825e-31 0 4.52483 -2.02791e-16 0 0 0 0)
(0 0 0 4.51932 -6.71709e-17 0 0 0 0)
(0 0 0 4.51378 5.97503e-17 0 0 0 0)
(0 0 0 4.50819 1.71896e-17 0 0 0 0)
(0 0 0 4.50257 2.17163e-17 0 0 0 0)
(0 0 0 4.49692 1.06337e-16 0 0 0 0)
(-2.31177e-16 0 0 4.49123 7.41455e-17 0 0 0 0)
(0 0 0 4.48552 2.72651e-17 0 0 0 0)
(0 0 0 4.47978 9.19928e-17 0 0 0 0)
(0 8.09813e-31 0 4.474 1.85674e-16 0 0 0 0)
(0 -8.05909e-31 0 4.46818 -6.24926e-17 0 0 0 0)
(0 0 0 4.46233 -1.92389e-16 0 0 0 0)
(0 0 0 4.45645 -2.92257e-18 0 0 0 0)
(0 0 0 4.45053 1.52606e-16 0 0 0 0)
(0 0 0 4.44459 6.96124e-17 0 0 0 0)
(0 0 0 4.43862 -6.33867e-17 0 0 0 0)
(0 0 0 4.43262 -3.11892e-17 0 0 0 0)
(0 7.80007e-31 0 4.42659 -6.47774e-17 0 0 0 0)
(-4.37066e-16 0 0 4.42053 -6.58845e-17 0 0 0 0)
(0 0 0 4.41444 9.9703e-17 0 0 0 0)
(-4.32822e-16 0 0 4.40832 1.29677e-16 0 0 0 0)
(0 0 0 4.40217 9.82141e-17 0 0 0 0)
(-4.28877e-16 0 0 4.396 1.08536e-16 0 0 0 0)
(0 -7.58383e-31 0 4.3898 3.37255e-17 0 0 0 0)
(0 0 0 4.38356 -3.95525e-17 0 0 0 0)
(4.22882e-16 -7.5119e-31 0 4.3773 -1.65859e-17 0 0 0 0)
(0 0 0 4.37102 5.21586e-17 0 0 0 0)
(0 0 0 4.36471 -2.87134e-17 0 0 0 0)
(0 0 0 4.35837 -7.07926e-17 0 0 0 0)
(0 0 0 4.35201 -3.02844e-18 0 0 0 0)
(0 0 0 4.34561 2.83953e-17 0 0 0 0)
(0 0 0 4.3392 9.10422e-17 0 0 0 0)
(0 0 0 4.33276 2.96704e-18 0 0 0 0)
(0 0 0 4.3263 -9.09447e-17 0 0 0 0)
(0 0 0 4.31981 -2.13349e-16 0 0 0 0)
(0 0 0 4.3133 -3.46468e-16 0 0 0 0)
(0 0 0 4.30677 -1.46535e-16 0 0 0 0)
(0 0 0 4.30021 1.90951e-17 0 0 0 0)
(0 0 0 4.29363 2.03e-17 0 0 0 0)
(0 0 0 4.28703 3.47971e-17 0 0 0 0)
(0 0 0 4.28041 1.54361e-16 0 0 0 0)
(-3.92327e-16 6.96912e-31 0 4.27376 2.81354e-16 0 0 0 0)
(-3.90338e-16 1.38676e-30 0 4.26709 1.85614e-16 0 0 0 0)
(0 0 0 4.26041 9.8159e-17 0 0 0 0)
(0 0 0 4.2537 1.03871e-16 0 0 0 0)
(0 0 0 4.24697 1.12833e-16 0 0 0 0)
(-3.83099e-16 6.80521e-31 0 4.24022 4.33265e-17 0 0 0 0)
(-3.81375e-16 0 0 4.23344 -9.42869e-17 0 0 0 0)
(3.79665e-16 -6.74421e-31 0 4.22666 -1.32799e-16 0 0 0 0)
(0 0 0 4.21985 -1.16094e-16 0 0 0 0)
(0 -6.68132e-31 0 4.21302 6.36742e-17 0 0 0 0)
(-3.74296e-16 0 0 4.20618 1.66481e-16 0 0 0 0)
(0 0 0 4.19932 1.34909e-17 0 0 0 0)
(0 0 0 4.19243 6.06421e-17 0 0 0 0)
(-3.69078e-16 0 0 4.18554 2.18483e-16 0 0 0 0)
(0 0 0 4.17862 9.53603e-17 0 0 0 0)
(0 0 0 4.17168 1.85302e-18 0 0 0 0)
(0 0 0 4.16473 -8.73107e-17 0 0 0 0)
(0 0 0 4.15776 -1.51331e-16 0 0 0 0)
(0 0 0 4.15078 -7.88962e-18 0 0 0 0)
(0 0 0 4.14377 9.486e-17 0 0 0 0)
(0 0 0 4.13675 1.20076e-16 0 0 0 0)
(0 0 0 4.12972 5.85867e-17 0 0 0 0)
(0 6.28502e-31 0 4.12267 -1.18225e-16 0 0 0 0)
(0 0 0 4.11562 -1.49405e-16 0 0 0 0)
(-7.00896e-16 0 0 4.10854 -5.66004e-17 0 0 0 0)
(0 0 0 4.10145 -6.28538e-17 0 0 0 0)
(0 0 0 4.09434 6.68913e-17 0 0 0 0)
(0 0 0 4.08722 1.89298e-16 0 0 0 0)
(-6.87806e-16 0 0 4.08009 4.67717e-17 0 0 0 0)
(0 0 0 4.07294 3.3985e-17 0 0 0 0)
(0 0 0 4.06578 2.22592e-17 0 0 0 0)
(0 0 0 4.05862 -1.312e-16 0 0 0 0)
(-3.37463e-16 5.99455e-31 0 4.05143 -3.11334e-16 0 0 0 0)
(3.35991e-16 -5.9684e-31 0 4.04423 -3.86697e-16 0 0 0 0)
(0 5.94012e-31 0 4.03702 -2.3093e-16 0 0 0 0)
(0 0 0 4.0298 -1.19255e-16 0 0 0 0)
(0 -5.88437e-31 0 4.02257 -1.47399e-16 0 0 0 0)
(0 0 0 4.01533 -1.40006e-16 0 0 0 0)
(0 0 0 4.00807 2.83643e-17 0 0 0 0)
(0 0 0 4.00081 1.31944e-16 0 0 0 0)
(0 0 0 3.99354 5.52588e-17 0 0 0 0)
(0 0 0 3.98625 -6.75799e-17 0 0 0 0)
(0 0 0 3.97896 -8.19585e-17 0 0 0 0)
(0 0 0 3.97165 -1.13079e-17 0 0 0 0)
(0 0 0 3.96434 7.13636e-18 0 0 0 0)
(-3.17598e-16 5.64167e-31 0 3.95701 1.80627e-16 0 0 0 0)
(-6.32114e-16 0 0 3.94968 3.68237e-16 0 0 0 0)
(0 0 0 3.94233 2.15616e-16 0 0 0 0)
(0 0 0 3.93498 5.31284e-17 0 0 0 0)
(0 0 0 3.92762 2.41543e-17 0 0 0 0)
(0 0 0 3.92026 -8.33627e-18 0 0 0 0)
(-6.17371e-16 5.48336e-31 0 3.91288 -2.05354e-17 0 0 0 0)
(-6.14683e-16 0 0 3.9055 9.19165e-17 0 0 0 0)
(0 0 0 3.89811 1.70722e-16 0 0 0 0)
(0 5.40846e-31 0 3.89071 1.93042e-16 0 0 0 0)
(0 0 0 3.8833 8.0347e-17 0 0 0 0)
(-6.03085e-16 5.35647e-31 0 3.87589 -1.98161e-16 0 0 0 0)
(0 0 0 3.86847 -1.15327e-16 0 0 0 0)
(0 0 0 3.86105 2.28859e-16 0 0 0 0)
(0 0 0 3.85361 4.10822e-16 0 0 0 0)
(0 0 0 3.84618 3.16811e-16 0 0 0 0)
(0 0 0 3.83873 1.65888e-16 0 0 0 0)
(0 0 0 3.83128 1.25613e-16 0 0 0 0)
(0 5.18481e-31 0 3.82383 1.45554e-16 0 0 0 0)
(0 0 0 3.81637 1.22869e-16 0 0 0 0)
(-5.78179e-16 0 0 3.80891 3.78939e-17 0 0 0 0)
(0 0 0 3.80143 6.17736e-17 0 0 0 0)
(0 0 0 3.79396 8.62358e-17 0 0 0 0)
(-5.70201e-16 5.0644e-31 0 3.78648 1.30049e-16 0 0 0 0)
(0 0 0 3.77899 1.33317e-16 0 0 0 0)
(-5.64877e-16 0 0 3.77151 1.09409e-16 0 0 0 0)
(0 0 0 3.76402 2.00321e-16 0 0 0 0)
(0 0 0 3.75652 1.18905e-16 0 0 0 0)
(0 0 0 3.74902 7.34492e-17 0 0 0 0)
(0 0 0 3.74151 2.03802e-16 0 0 0 0)
(5.51813e-16 0 0 3.73401 1.92044e-16 0 0 0 0)
(-5.48952e-16 0 0 3.7265 1.54555e-17 0 0 0 0)
(0 0 0 3.71898 -1.76308e-17 0 0 0 0)
(-5.44016e-16 0 0 3.71147 7.56741e-17 0 0 0 0)
(0 0 0 3.70395 -1.05173e-17 0 0 0 0)
(0 0 0 3.69643 -6.14788e-17 0 0 0 0)
(0 0 0 3.68891 6.29423e-17 0 0 0 0)
(0 0 0 3.68139 2.05766e-16 0 0 0 0)
(-5.31388e-16 4.71968e-31 0 3.67386 2.83435e-16 0 0 0 0)
(0 0 0 3.66633 1.27457e-16 0 0 0 0)
(0 0 0 3.6588 8.82842e-17 0 0 0 0)
(0 0 0 3.65127 3.33344e-16 0 0 0 0)
(-5.21411e-16 1.38932e-30 0 3.64374 2.96158e-16 0 0 0 0)
(0 0 0 3.6362 -1.91207e-16 0 0 0 0)
(1.03328e-15 -9.17739e-31 0 3.62867 -4.79598e-16 0 0 0 0)
(0 0 0 3.62114 -2.08193e-16 0 0 0 0)
(0 4.54435e-31 0 3.6136 2.02238e-16 0 0 0 0)
(0 9.0477e-31 0 3.60606 3.58754e-16 0 0 0 0)
(0 0 0 3.59852 1.61758e-16 0 0 0 0)
(0 0 0 3.59098 1.68791e-16 0 0 0 0)
(-1.50673e-15 1.33824e-30 0 3.58345 4.67781e-16 0 0 0 0)
(0 4.43844e-31 0 3.57591 4.10811e-16 0 0 0 0)
(0 0 0 3.56837 8.31577e-17 0 0 0 0)
(0 0 0 3.56083 -3.44358e-17 0 0 0 0)
(0 0 0 3.55329 1.10327e-16 0 0 0 0)
(0 0 0 3.54576 3.88916e-16 0 0 0 0)
(-9.76407e-16 8.67223e-31 0 3.53822 5.06216e-16 0 0 0 0)
(4.85963e-16 -4.31622e-31 0 3.53069 2.43293e-16 0 0 0 0)
(-4.83742e-16 8.59299e-31 0 3.52316 8.43379e-17 0 0 0 0)
(0 0 0 3.51562 2.95675e-16 0 0 0 0)
(-4.79091e-16 4.25518e-31 0 3.50809 3.7943e-16 0 0 0 0)
(0 0 0 3.50056 2.97375e-16 0 0 0 0)
(0 0 0 3.49303 1.84105e-16 0 0 0 0)
(4.72543e-16 0 0 3.4855 6.24707e-17 0 0 0 0)
(0 0 0 3.47797 1.17553e-16 0 0 0 0)
(0 0 0 3.47045 2.76014e-16 0 0 0 0)
(0 0 0 3.46293 1.42571e-16 0 0 0 0)
(0 0 0 3.45541 -3.12719e-16 0 0 0 0)
(1.38442e-15 -1.63948e-30 0 3.44789 -4.87019e-16 0 0 0 0)
(0 0 0 3.44037 -1.9233e-16 0 0 0 0)
(0 0 0 3.43286 -5.23786e-17 0 0 0 0)
(0 0 0 3.42535 -1.6502e-16 0 0 0 0)
(0 0 0 3.41784 -3.2526e-17 0 0 0 0)
(0 0 0 3.41033 1.42072e-16 0 0 0 0)
(0 0 0 3.40283 2.44371e-16 0 0 0 0)
(0 7.93164e-31 0 3.39533 1.69146e-16 0 0 0 0)
(-4.4452e-16 0 0 3.38783 -4.487e-17 0 0 0 0)
(0 0 0 3.38034 1.99217e-17 0 0 0 0)
(-4.4036e-16 0 0 3.37285 2.32625e-16 0 0 0 0)
(0 0 0 3.36536 4.91622e-16 0 0 0 0)
(0 7.74785e-31 0 3.35787 5.90479e-16 0 0 0 0)
(8.68306e-16 0 0 3.35039 2.67577e-16 0 0 0 0)
(0 0 0 3.34291 -2.77179e-17 0 0 0 0)
(0 0 0 3.33544 -2.22136e-17 0 0 0 0)
(0 0 0 3.32797 -4.04759e-17 0 0 0 0)
(-4.26073e-16 0 0 3.3205 -1.22858e-16 0 0 0 0)
(0 0 0 3.31304 -9.69949e-17 0 0 0 0)
(0 0 0 3.30558 -3.04938e-16 0 0 0 0)
(8.4031e-16 -7.46346e-31 0 3.29813 -6.62553e-16 0 0 0 0)
(0 0 0 3.29068 -5.7806e-16 0 0 0 0)
(0 0 0 3.28323 -2.58614e-16 0 0 0 0)
(0 0 0 3.27579 -1.06469e-16 0 0 0 0)
(0 0 0 3.26835 -7.75153e-17 0 0 0 0)
(0 0 0 3.26093 -5.97038e-17 0 0 0 0)
(0 0 0 3.25351 -1.56965e-16 0 0 0 0)
(0 0 0 3.24611 -2.31316e-16 0 0 0 0)
(0 0 0 3.23873 -9.08723e-17 0 0 0 0)
(0 0 0 3.23137 -3.14253e-16 0 0 0 0)
(0 -7.12084e-31 0 3.22404 -6.36883e-16 0 0 0 0)
(7.97958e-16 0 0 3.21681 -8.25088e-17 0 0 0 0)
(0 0 0 3.20958 3.63135e-16 0 0 0 0)
(-7.90511e-16 7.02115e-31 0 3.20234 1.92586e-16 0 0 0 0)
(0 0 0 3.19508 2.97092e-16 0 0 0 0)
(0 0 0 3.18772 3.18451e-16 0 0 0 0)
(0 6.92263e-31 0 3.18036 2.59959e-16 0 0 0 0)
(-7.75849e-16 0 0 3.17299 5.17662e-16 0 0 0 0)
(0 6.85794e-31 0 3.16563 5.45028e-16 0 0 0 0)
(0 0 0 3.15826 3.06238e-16 0 0 0 0)
(0 0 0 3.1509 3.94792e-16 0 0 0 0)
(-1.52276e-15 6.76239e-31 0 3.14355 5.10324e-16 0 0 0 0)
(0 0 0 3.1362 3.41828e-16 0 0 0 0)
(0 0 0 3.12885 5.30194e-16 0 0 0 0)
(-7.50749e-16 1.3336e-30 0 3.12151 7.64503e-16 0 0 0 0)
(0 0 0 3.11418 6.17933e-16 0 0 0 0)
(0 0 0 3.10685 7.19727e-16 0 0 0 0)
(0 6.57476e-31 0 3.09953 6.17422e-16 0 0 0 0)
(0 0 0 3.09221 -7.23789e-17 0 0 0 0)
(7.33203e-16 -6.51215e-31 0 3.0849 -3.70049e-16 0 0 0 0)
(0 0 0 3.0776 -1.13714e-16 0 0 0 0)
(0 0 0 3.0703 6.57362e-17 0 0 0 0)
(0 0 0 3.06301 8.77407e-17 0 0 0 0)
(0 0 0 3.05573 -2.15611e-17 0 0 0 0)
(-7.16156e-16 6.36074e-31 0 3.04845 -1.31527e-16 0 0 0 0)
(0 -6.33263e-31 0 3.04118 -1.23575e-17 0 0 0 0)
(0 0 0 3.03392 1.46621e-16 0 0 0 0)
(0 0 0 3.02666 2.00446e-16 0 0 0 0)
(-1.40586e-15 1.24866e-30 0 3.0194 3.19058e-16 0 0 0 0)
(0 0 0 3.01216 3.98899e-16 0 0 0 0)
(0 0 0 3.00492 8.53253e-18 0 0 0 0)
(1.38602e-15 -6.15518e-31 0 2.99769 -3.69413e-16 0 0 0 0)
(0 0 0 2.99046 -1.82794e-16 0 0 0 0)
(0 0 0 2.98324 -1.54691e-17 0 0 0 0)
(0 0 0 2.97603 5.00422e-17 0 0 0 0)
(0 6.04149e-31 0 2.96883 2.76421e-16 0 0 0 0)
(0 0 0 2.96163 2.64626e-16 0 0 0 0)
(0 0 0 2.95444 7.489e-17 0 0 0 0)
(0 0 0 2.94726 -5.09521e-17 0 0 0 0)
(0 0 0 2.94008 -4.09568e-16 0 0 0 0)
(6.6434e-16 -5.90052e-31 0 2.93291 -6.9158e-16 0 0 0 0)
(0 0 0 2.92575 -2.67304e-16 0 0 0 0)
(-6.5789e-16 0 0 2.9186 1.33115e-16 0 0 0 0)
(0 5.82063e-31 0 2.91145 1.31832e-16 0 0 0 0)
(0 0 0 2.90431 1.1076e-16 0 0 0 0)
(0 0 0 2.89717 4.22437e-17 0 0 0 0)
(-6.4659e-16 5.74287e-31 0 2.89005 2.38289e-16 0 0 0 0)
(-6.42909e-16 0 0 2.88294 5.78269e-16 0 0 0 0)
(-6.3927e-16 5.67786e-31 0 2.87582 4.28495e-16 0 0 0 0)
(0 0 0 2.86871 6.13031e-17 0 0 0 0)
(0 0 0 2.86162 -1.08926e-17 0 0 0 0)
(0 0 0 2.85454 -7.21956e-18 0 0 0 0)
(0 0 0 2.84745 8.76506e-17 0 0 0 0)
(-6.25117e-16 0 0 2.84036 6.77904e-16 0 0 0 0)
(-6.21676e-16 1.10432e-30 0 2.83329 1.21326e-15 0 0 0 0)
(-6.19403e-16 5.5014e-31 0 2.82623 8.86352e-16 0 0 0 0)
(0 0 0 2.81919 1.83462e-16 0 0 0 0)
(6.12682e-16 -5.44171e-31 0 2.81215 -2.94403e-16 0 0 0 0)
(0 0 0 2.8051 -3.4148e-16 0 0 0 0)
(0 0 0 2.79808 -9.83254e-17 0 0 0 0)
(0 0 0 2.79107 1.07416e-16 0 0 0 0)
(0 0 0 2.78406 4.50392e-16 0 0 0 0)
(-1.19722e-15 5.31672e-31 0 2.77704 6.5785e-16 0 0 0 0)
(0 0 0 2.77004 4.00081e-16 0 0 0 0)
(0 0 0 2.76305 1.18367e-16 0 0 0 0)
(0 0 0 2.75607 2.35857e-16 0 0 0 0)
(-1.17643e-15 5.22442e-31 0 2.7491 4.72807e-16 0 0 0 0)
(-5.8517e-16 5.19735e-31 0 2.74214 6.40378e-16 0 0 0 0)
(-1.74646e-15 5.17056e-31 0 2.73517 7.4965e-16 0 0 0 0)
(0 0 0 2.72822 7.97273e-16 0 0 0 0)
(0 5.12652e-31 0 2.72129 8.11111e-16 0 0 0 0)
(-5.7426e-16 5.10045e-31 0 2.71435 5.3016e-16 0 0 0 0)
(0 0 0 2.70742 2.15234e-16 0 0 0 0)
(0 0 0 2.7005 3.942e-16 0 0 0 0)
(-5.66577e-16 5.03222e-31 0 2.6936 6.37609e-16 0 0 0 0)
(0 0 0 2.6867 2.59574e-16 0 0 0 0)
(0 0 0 2.6798 -2.62586e-16 0 0 0 0)
(0 -9.91521e-31 0 2.67291 -2.65518e-16 0 0 0 0)
(0 0 0 2.66602 3.16869e-16 0 0 0 0)
(-1.10723e-15 4.9171e-31 0 2.65915 1.23529e-15 0 0 0 0)
(0 4.89311e-31 0 2.6523 1.30899e-15 0 0 0 0)
(0 0 0 2.64544 1.90628e-16 0 0 0 0)
(1.09119e-15 -9.69168e-31 0 2.63859 -3.97547e-16 0 0 0 0)
(0 0 0 2.63175 -6.99317e-17 0 0 0 0)
(0 0 0 2.62492 -1.90284e-16 0 0 0 0)
(1.0756e-15 -4.77661e-31 0 2.6181 -3.55546e-16 0 0 0 0)
(0 4.75397e-31 0 2.61128 5.40276e-16 0 0 0 0)
(-1.06545e-15 9.4631e-31 0 2.60447 1.19549e-15 0 0 0 0)
(-1.06211e-15 4.71672e-31 0 2.59769 1.23651e-15 0 0 0 0)
(0 9.37466e-31 0 2.5909 8.5959e-16 0 0 0 0)
(-1.05058e-15 4.66553e-31 0 2.58412 -3.20546e-16 0 0 0 0)
(0 0 0 2.57735 -8.00939e-16 0 0 0 0)
(1.0409e-15 0 0 2.57058 -4.32744e-16 0 0 0 0)
(0 0 0 2.56383 -1.05317e-16 0 0 0 0)
(0 -9.16063e-31 0 2.55708 -5.13666e-17 0 0 0 0)
(1.02515e-15 0 0 2.55033 -4.66064e-16 0 0 0 0)
(0 0 0 2.5436 -4.11986e-16 0 0 0 0)
(0 0 0 2.53687 -2.57115e-17 0 0 0 0)
(0 0 0 2.53016 1.43242e-17 0 0 0 0)
(-1.00687e-15 4.47142e-31 0 2.52345 -1.44783e-16 0 0 0 0)
(0 0 0 2.51675 -1.3886e-16 0 0 0 0)
(9.97977e-16 -4.43191e-31 0 2.51006 2.12923e-16 0 0 0 0)
(-9.93587e-16 8.82483e-31 0 2.50338 4.78727e-16 0 0 0 0)
(0 4.38668e-31 0 2.4967 6.11533e-16 0 0 0 0)
(9.84922e-16 0 0 2.49004 4.71015e-16 0 0 0 0)
(-1.95846e-15 8.6973e-31 0 2.48339 2.57066e-16 0 0 0 0)
(0 0 0 2.47673 3.41231e-16 0 0 0 0)
(0 0 0 2.47009 4.60738e-16 0 0 0 0)
(-9.6528e-16 8.57341e-31 0 2.46346 4.21115e-16 0 0 0 0)
(-9.61172e-16 4.26846e-31 0 2.45683 4.76542e-16 0 0 0 0)
(1.9115e-15 -4.24438e-31 0 2.45021 3.5575e-16 0 0 0 0)
(0 0 0 2.44361 -1.45716e-17 0 0 0 0)
(9.47729e-16 -4.20876e-31 0 2.43701 -1.4041e-16 0 0 0 0)
(0 0 0 2.43042 -2.18502e-18 0 0 0 0)
(0 0 0 2.42383 5.31742e-16 0 0 0 0)
(-1.86931e-15 8.30142e-31 0 2.41726 9.95223e-16 0 0 0 0)
(0 0 0 2.41069 8.13466e-16 0 0 0 0)
(-9.25719e-16 0 0 2.40413 4.44734e-16 0 0 0 0)
(0 0 0 2.39758 1.65178e-16 0 0 0 0)
(0 0 0 2.39105 -1.71639e-16 0 0 0 0)
(-9.12014e-16 0 0 2.38451 -3.12142e-16 0 0 0 0)
(0 0 0 2.37798 -5.16618e-16 0 0 0 0)
(0 0 0 2.37147 -8.84509e-16 0 0 0 0)
(-8.99902e-16 0 0 2.36496 -5.80619e-16 0 0 0 0)
(0 0 0 2.35846 -3.03946e-16 0 0 0 0)
(8.91614e-16 -7.91912e-31 0 2.35196 -4.60615e-16 0 0 0 0)
(0 0 0 2.34548 -2.36042e-16 0 0 0 0)
(0 0 0 2.339 2.14637e-16 0 0 0 0)
(-1.75779e-15 7.80614e-31 0 2.33253 4.09359e-16 0 0 0 0)
(0 0 0 2.32607 2.70766e-16 0 0 0 0)
(0 0 0 2.31962 7.54079e-17 0 0 0 0)
(0 0 0 2.31318 2.29537e-17 0 0 0 0)
(0 0 0 2.30674 1.33196e-16 0 0 0 0)
(0 0 0 2.30032 1.58187e-16 0 0 0 0)
(0 0 0 2.29391 -1.70449e-16 0 0 0 0)
(-8.50221e-16 0 0 2.28749 -2.78601e-16 0 0 0 0)
(0 0 0 2.28109 1.36416e-17 0 0 0 0)
(-8.41772e-16 0 0 2.2747 4.05122e-16 0 0 0 0)
(0 0 0 2.2683 6.33347e-16 0 0 0 0)
(-8.35544e-16 0 0 2.26193 2.91445e-16 0 0 0 0)
(0 0 0 2.25557 4.13975e-16 0 0 0 0)
(-1.65477e-15 0 0 2.24921 9.27374e-16 0 0 0 0)
(1.64472e-15 -7.30404e-31 0 2.24285 5.35591e-16 0 0 0 0)
(8.19379e-16 -7.27755e-31 0 2.2365 -2.20145e-16 0 0 0 0)
(0 0 0 2.23017 -3.3723e-16 0 0 0 0)
(0 0 0 2.22384 1.87951e-16 0 0 0 0)
(-8.0766e-16 0 0 2.21752 4.05756e-16 0 0 0 0)
(0 0 0 2.2112 1.45816e-16 0 0 0 0)
(0 0 0 2.2049 -2.52048e-19 0 0 0 0)
(0 0 0 2.19861 2.39726e-16 0 0 0 0)
(-1.58509e-15 0 0 2.19232 3.93204e-16 0 0 0 0)
(-1.57771e-15 0 0 2.18604 2.23856e-16 0 0 0 0)
(0 0 0 2.17977 6.03928e-16 0 0 0 0)
(0 0 0 2.1735 1.0858e-15 0 0 0 0)
(-7.77987e-16 6.90991e-31 0 2.16725 6.93206e-16 0 0 0 0)
(0 6.87832e-31 0 2.161 1.99782e-16 0 0 0 0)
(0 0 0 2.15476 3.50153e-16 0 0 0 0)
(0 0 0 2.14853 6.52998e-16 0 0 0 0)
(-1.52791e-15 0 0 2.1423 7.10747e-16 0 0 0 0)
(0 0 0 2.13609 6.70503e-16 0 0 0 0)
(0 0 0 2.12988 9.34339e-16 0 0 0 0)
(-7.52918e-16 6.68726e-31 0 2.12368 9.3405e-16 0 0 0 0)
(0 0 0 2.11749 4.63826e-16 0 0 0 0)
(0 0 0 2.11131 7.45355e-16 0 0 0 0)
(0 6.59204e-31 0 2.10513 1.24835e-15 0 0 0 0)
(-1.47792e-15 6.56328e-31 0 2.09896 8.62402e-16 0 0 0 0)
(0 0 0 2.0928 1.67243e-16 0 0 0 0)
(0 0 0 2.08664 -4.22986e-17 0 0 0 0)
(0 0 0 2.0805 -7.22982e-17 0 0 0 0)
(0 6.44382e-31 0 2.07437 2.53933e-16 0 0 0 0)
(0 0 0 2.06824 9.18688e-16 0 0 0 0)
(0 0 0 2.06212 6.40845e-16 0 0 0 0)
(0 0 0 2.056 1.28241e-16 0 0 0 0)
(0 0 0 2.04989 1.53439e-16 0 0 0 0)
(0 0 0 2.0438 -3.31011e-16 0 0 0 0)
(1.41025e-15 -6.26278e-31 0 2.03771 -3.9085e-16 0 0 0 0)
(0 0 0 2.03162 6.1623e-16 0 0 0 0)
(0 0 0 2.02555 7.00585e-16 0 0 0 0)
(0 0 0 2.01948 1.7102e-16 0 0 0 0)
(0 0 0 2.01342 4.06381e-16 0 0 0 0)
(0 0 0 2.00737 6.04626e-16 0 0 0 0)
(0 0 0 2.00132 1.76533e-16 0 0 0 0)
(0 0 0 1.99529 -6.76685e-17 0 0 0 0)
(0 0 0 1.98926 4.37271e-16 0 0 0 0)
(0 0 0 1.98324 8.93077e-16 0 0 0 0)
(0 0 0 1.97722 6.37369e-16 0 0 0 0)
(0 0 0 1.97121 1.93854e-16 0 0 0 0)
(0 0 0 1.96522 1.28886e-17 0 0 0 0)