/*--------------------------------*- C++ -*----------------------------------*\
| =========                 |                                                 |
| \\      /  F ield         | OpenFOAM: The Open Source CFD Toolbox           |
|  \\    /   O peration     | Version:  v1806                                 |
|   \\  /    A nd           | Web:      www.OpenFOAM.com                      |
|    \\/     M anipulation  |                                                 |
\*---------------------------------------------------------------------------*/
FoamFile
{
    version     2.0;
    format      ascii;
    class       volVectorField;
    location    "10000";
    object      grad(k);
}
// * * * * * * * * * * * * * * * * * * * * * * * * * * * * * * * * * * * * * //

dimensions      [0 1 -2 0 0 0 0];


internalField   nonuniform List<vector> 
1025
(
(5.24152e-22 0.076926 0)
(0 0.211799 0)
(-3.32318e-20 0.368755 0)
(-1.9846e-19 0.527071 0)
(0 0.686753 0)
(0 0.84781 0)
(-2.60907e-19 1.01025 0)
(0 1.17406 0)
(0 1.33924 0)
(0 1.50579 0)
(0 1.67368 0)
(0 1.84288 0)
(0 2.01336 0)
(-2.01978e-18 2.18508 0)
(-2.01031e-18 2.35796 0)
(-1.00046e-18 2.53193 0)
(-9.95763e-19 2.70689 0)
(0 2.88272 0)
(0 3.05928 0)
(-1.96363e-18 3.23636 0)
(0 3.41376 0)
(0 3.5912 0)
(1.93619e-18 3.76835 0)
(0 3.94483 0)
(7.67222e-18 4.12016 0)
(3.81805e-18 4.2938 0)
(0 4.46509 0)
(-3.78226e-18 4.6333 0)
(0 4.79756 0)
(0 4.9569 0)
(0 5.11024 0)
(0 5.25638 0)
(0 5.39404 0)
(-7.35435e-18 5.5219 0)
(0 5.63857 0)
(0 5.7427 0)
(0 5.83302 0)
(0 5.90838 0)
(-7.18351e-18 5.96786 0)
(-7.1509e-18 6.01072 0)
(0 6.03655 0)
(0 6.04524 0)
(-1.41007e-17 6.03697 0)
(1.40349e-17 6.01225 0)
(0 5.97186 0)
(0 5.91678 0)
(-1.38382e-17 5.84822 0)
(0 5.76749 0)
(0 5.676 0)
(0 5.57516 0)
(0 5.46641 0)
(2.70376e-17 5.35117 0)
(0 5.23077 0)
(-1.33929e-17 5.10646 0)
(0 4.97943 0)
(0 4.85072 0)
(0 4.72132 0)
(-1.31429e-17 4.5921 0)
(0 4.46381 0)
(-1.30188e-17 4.33712 0)
(0 4.21257 0)
(0 4.09065 0)
(-2.56739e-17 3.97176 0)
(0 3.8562 0)
(0 3.7442 0)
(2.53154e-17 3.63594 0)
(0 3.53156 0)
(0 3.43111 0)
(-2.49574e-17 3.33462 0)
(-2.48449e-17 3.24208 0)
(-2.47242e-17 3.15345 0)
(0 3.06867 0)
(0 2.98765 0)
(0 2.91029 0)
(0 2.83647 0)
(0 2.76607 0)
(0 2.69896 0)
(0 2.635 0)
(0 2.57406 0)
(0 2.516 0)
(0 2.4607 0)
(0 2.40801 0)
(-2.33749e-17 2.35782 0)
(0 2.30999 0)
(0 2.2644 0)
(0 2.22094 0)
(0 2.17951 0)
(-2.28306e-17 2.13999 0)
(0 2.10228 0)
(0 2.06629 0)
(0 2.03193 0)
(0 1.99911 0)
(0 1.96774 0)
(0 1.93776 0)
(0 1.90909 0)
(0 1.88166 0)
(-4.37734e-17 1.85541 0)
(-2.17822e-17 1.83028 0)
(-4.33575e-17 1.8062 0)
(-4.31596e-17 1.78312 0)
(4.29565e-17 1.761 0)
(0 1.73979 0)
(0 1.71943 0)
(0 1.69988 0)
(0 1.68111 0)
(-4.19622e-17 1.66308 0)
(0 1.64575 0)
(4.15603e-17 1.62909 0)
(0 1.61306 0)
(0 1.59763 0)
(-2.04906e-17 1.58278 0)
(0 1.56848 0)
(-4.05978e-17 1.5547 0)
(4.04119e-17 1.54142 0)
(0 1.52862 0)
(0 1.51627 0)
(0 1.50435 0)
(-3.9661e-17 1.49284 0)
(-3.94718e-17 1.48173 0)
(0 1.471 0)
(0 1.46063 0)
(0 1.4506 0)
(-3.87382e-17 1.44091 0)
(0 1.43153 0)
(0 1.42245 0)
(0 1.41366 0)
(0 1.40515 0)
(-3.7841e-17 1.3969 0)
(3.7658e-17 1.38891 0)
(0 1.38116 0)
(0 1.37365 0)
(-3.71349e-17 1.36636 0)
(0 1.35928 0)
(0 1.35241 0)
(0 1.34574 0)
(0 1.33925 0)
(0 1.33295 0)
(-3.61017e-17 1.32683 0)
(0 1.32087 0)
(0 1.31507 0)
(0 1.30943 0)
(0 1.30394 0)
(0 1.29858 0)
(-3.51012e-17 1.29337 0)
(-6.98688e-17 1.28829 0)
(0 1.28334 0)
(0 1.2785 0)
(-3.44479e-17 1.27379 0)
(0 1.26919 0)
(-3.41281e-17 1.26469 0)
(0 1.2603 0)
(0 1.25601 0)
(-3.36466e-17 1.25182 0)
(0 1.24772 0)
(0 1.24371 0)
(0 1.23978 0)
(0 1.23594 0)
(0 1.23217 0)
(6.54221e-17 1.22849 0)
(0 1.22487 0)
(0 1.22133 0)
(0 1.21785 0)
(0 1.21444 0)
(0 1.2111 0)
(0 1.20781 0)
(0 1.20458 0)
(0 1.20141 0)
(0 1.19829 0)
(0 1.19523 0)
(0 1.19221 0)
(-3.09226e-17 1.18925 0)
(0 1.18632 0)
(0 1.18343 0)
(0 1.1806 0)
(-6.07105e-17 1.17781 0)
(-3.01822e-17 1.17505 0)
(-3.00793e-17 1.17233 0)
(5.98187e-17 1.16965 0)
(-2.97748e-17 1.167 0)
(2.96414e-17 1.16438 0)
(0 1.1618 0)
(0 1.15926 0)
(0 1.15674 0)
(-5.81753e-17 1.15424 0)
(5.79207e-17 1.15178 0)
(0 1.14933 0)
(2.8678e-17 1.14692 0)
(-2.85542e-17 1.14453 0)
(0 1.14216 0)
(0 1.13982 0)
(0 1.13749 0)
(0 1.13519 0)
(0 1.1329 0)
(-5.55504e-17 1.13063 0)
(0 1.12838 0)
(0 1.12615 0)
(0 1.12393 0)
(0 1.12173 0)
(0 1.11955 0)
(5.39649e-17 1.11737 0)
(0 1.11521 0)
(0 1.11307 0)
(-5.32056e-17 1.11094 0)
(0 1.10881 0)
(-5.27286e-17 1.10669 0)
(-5.24674e-17 1.10459 0)
(0 1.1025 0)
(0 1.10041 0)
(0 1.09834 0)
(5.14976e-17 1.09627 0)
(0 1.09421 0)
(-5.10015e-17 1.09215 0)
(0 1.09011 0)
(0 1.08807 0)
(0 1.08603 0)
(0 1.08401 0)
(0 1.08199 0)
(0 1.07997 0)
(0 1.07796 0)
(0 1.07595 0)
(0 1.07394 0)
(0 1.07193 0)
(-4.84351e-17 1.06994 0)
(0 1.06794 0)
(-4.7996e-17 1.06595 0)
(0 1.06395 0)
(0 1.06196 0)
(4.73097e-17 1.05997 0)
(-4.70993e-17 1.05799 0)
(0 1.056 0)
(0 1.05401 0)
(0 1.05203 0)
(0 1.05004 0)
(0 1.04806 0)
(0 1.04607 0)
(-9.11965e-17 1.04409 0)
(0 1.04211 0)
(0 1.04013 0)
(0 1.03814 0)
(0 1.03616 0)
(0 1.03417 0)
(0 1.03218 0)
(-8.82326e-17 1.0302 0)
(0 1.0282 0)
(4.37156e-17 1.02621 0)
(0 1.02422 0)
(0 1.02222 0)
(0 1.02023 0)
(0 1.01823 0)
(0 1.01623 0)
(0 1.01422 0)
(0 1.01222 0)
(0 1.01021 0)
(0 1.0082 0)
(0 1.00619 0)
(-8.29774e-17 1.00417 0)
(0 1.00215 0)
(-8.22043e-17 1.00013 0)
(-8.18231e-17 0.998103 0)
(-1.22168e-16 0.996078 0)
(-1.21607e-16 0.99405 0)
(0 0.992016 0)
(-4.01361e-17 0.989976 0)
(-7.99088e-17 0.987934 0)
(3.97743e-17 0.985891 0)
(0 0.983847 0)
(0 0.981797 0)
(0 0.979743 0)
(0 0.977688 0)
(0 0.975628 0)
(0 0.973564 0)
(0 0.971496 0)
(0 0.969424 0)
(-7.62818e-17 0.967352 0)
(0 0.965277 0)
(0 0.963195 0)
(0 0.961109 0)
(0 0.95902 0)
(0 0.956926 0)
(-7.4145e-17 0.954828 0)
(-7.37834e-17 0.952729 0)
(-7.34252e-17 0.950623 0)
(0 0.948513 0)
(-7.27692e-17 0.946401 0)
(0 0.944287 0)
(0 0.942168 0)
(-1.43468e-16 0.940045 0)
(0 0.937918 0)
(0 0.935787 0)
(-7.07275e-17 0.933651 0)
(0 0.931513 0)
(0 0.92937 0)
(0 0.927225 0)
(0 0.925073 0)
(0 0.922919 0)
(0 0.920761 0)
(0 0.918599 0)
(-6.81333e-17 0.916434 0)
(0 0.914264 0)
(0 0.91209 0)
(0 0.909914 0)
(0 0.907734 0)
(0 0.905549 0)
(0 0.903361 0)
(0 0.901169 0)
(0 0.898974 0)
(6.53172e-17 0.896775 0)
(-6.49964e-17 0.894573 0)
(0 0.892366 0)
(0 0.890156 0)
(0 0.887944 0)
(-6.37826e-17 0.885727 0)
(0 0.883505 0)
(0 0.881282 0)
(0 0.879054 0)
(0 0.876822 0)
(0 0.874589 0)
(0 0.87235 0)
(-6.17371e-17 0.870108 0)
(0 0.867862 0)
(1.22333e-16 0.865614 0)
(0 0.863363 0)
(0 0.861107 0)
(0 0.858848 0)
(0 0.856588 0)
(1.19435e-16 0.854323 0)
(-5.94493e-17 0.852055 0)
(0 0.849785 0)
(0 0.847511 0)
(-1.17188e-16 0.845231 0)
(0 0.842951 0)
(0 0.840667 0)
(0 0.838379 0)
(0 0.83609 0)
(0 0.833799 0)
(-5.69855e-17 0.831504 0)
(0 0.829204 0)
(0 0.826903 0)
(0 0.824598 0)
(-5.59319e-17 0.822289 0)
(0 0.81998 0)
(0 0.817667 0)
(0 0.815351 0)
(-5.48881e-17 0.813033 0)
(0 0.810713 0)
(0 0.80839 0)
(0 0.806063 0)
(0 0.803734 0)
(-1.07219e-16 0.801404 0)
(0 0.79907 0)
(0 0.796733 0)
(1.05721e-16 0.794393 0)
(0 0.792052 0)
(0 0.789709 0)
(-1.04263e-16 0.787363 0)
(0 0.785015 0)
(0 0.782663 0)
(-1.02795e-16 0.780309 0)
(0 0.777954 0)
(0 0.775598 0)
(0 0.773238 0)
(0 0.770876 0)
(0 0.768512 0)
(0 0.766147 0)
(0 0.763779 0)
(0 0.761409 0)
(0 0.759038 0)
(-9.80816e-17 0.756664 0)
(0 0.754288 0)
(0 0.75191 0)
(0 0.749532 0)
(0 0.747151 0)
(-1.9155e-16 0.744767 0)
(-9.53436e-17 0.742381 0)
(9.49163e-17 0.739995 0)
(0 0.737608 0)
(0 0.735219 0)
(-9.35741e-17 0.732828 0)
(0 0.730435 0)
(0 0.728041 0)
(-9.22694e-17 0.725646 0)
(0 0.723248 0)
(0 0.720849 0)
(0 0.718448 0)
(0 0.716047 0)
(0 0.713644 0)
(0 0.711239 0)
(0 0.708833 0)
(0 0.706426 0)
(0 0.704018 0)
(-8.80492e-17 0.70161 0)
(-8.7612e-17 0.699201 0)
(0 0.696789 0)
(0 0.694377 0)
(0 0.691963 0)
(0 0.689548 0)
(-8.55935e-17 0.687132 0)
(0 0.684716 0)
(0 0.682299 0)
(-8.43658e-17 0.67988 0)
(1.67995e-16 0.677461 0)
(0 0.675041 0)
(0 0.67262 0)
(0 0.670198 0)
(0 0.667776 0)
(0 0.665353 0)
(-8.16653e-17 0.66293 0)
(0 0.660507 0)
(0 0.658082 0)
(0 0.655656 0)
(0 0.653231 0)
(0 0.650804 0)
(-7.93994e-17 0.648378 0)
(-7.90143e-17 0.64595 0)
(0 0.643522 0)
(0 0.641093 0)
(0 0.638665 0)
(0 0.636236 0)
(0 0.633808 0)
(0 0.631378 0)
(0 0.628948 0)
(-7.61173e-17 0.626518 0)
(0 0.624088 0)
(0 0.621657 0)
(7.5065e-17 0.619228 0)
(-7.46679e-17 0.616798 0)
(-7.43533e-17 0.614367 0)
(0 0.611937 0)
(0 0.609506 0)
(-7.32981e-17 0.607075 0)
(-7.29698e-17 0.604646 0)
(0 0.602216 0)
(0 0.599787 0)
(0 0.597357 0)
(0 0.594926 0)
(-7.12751e-17 0.592497 0)
(0 0.590068 0)
(0 0.587639 0)
(0 0.585211 0)
(0 0.582782 0)
(0 0.580355 0)
(0 0.577927 0)
(1.37953e-16 0.5755 0)
(-1.37238e-16 0.573074 0)
(0 0.570647 0)
(0 0.568222 0)
(1.35352e-16 0.565797 0)
(0 0.563373 0)
(0 0.560949 0)
(0 0.558526 0)
(-1.32847e-16 0.556104 0)
(0 0.553682 0)
(0 0.551261 0)
(0 0.548841 0)
(-2.60706e-16 0.546421 0)
(0 0.544002 0)
(1.2916e-16 0.541585 0)
(0 0.539169 0)
(-1.27912e-16 0.536752 0)
(-1.27335e-16 0.534337 0)
(0 0.531922 0)
(0 0.529509 0)
(-1.25561e-16 0.527098 0)
(-1.24931e-16 0.524686 0)
(0 0.522276 0)
(0 0.519867 0)
(0 0.517459 0)
(0 0.515053 0)
(-1.22051e-16 0.512648 0)
(0 0.510243 0)
(-1.20936e-16 0.507841 0)
(0 0.505439 0)
(-2.39546e-16 0.503038 0)
(0 0.500639 0)
(-1.18665e-16 0.498241 0)
(0 0.495845 0)
(-1.17546e-16 0.49345 0)
(0 0.491057 0)
(0 0.488665 0)
(-1.15937e-16 0.486275 0)
(3.46104e-16 0.483886 0)
(0 0.481499 0)
(0 0.479113 0)
(0 0.476729 0)
(0 0.474346 0)
(0 0.471965 0)
(0 0.469587 0)
(-1.11628e-16 0.467209 0)
(0 0.464834 0)
(0 0.462459 0)
(0 0.460087 0)
(-2.19155e-16 0.457717 0)
(-2.18083e-16 0.455349 0)
(1.08538e-16 0.452982 0)
(0 0.450618 0)
(0 0.448255 0)
(0 0.445895 0)
(-2.13036e-16 0.443536 0)
(0 0.44118 0)
(0 0.438825 0)
(1.05039e-16 0.436473 0)
(0 0.434123 0)
(0 0.431774 0)
(0 0.429429 0)
(0 0.427086 0)
(0 0.424746 0)
(0 0.422409 0)
(0 0.420075 0)
(0 0.417746 0)
(0 0.41542 0)
(1.00217e-16 0.413098 0)
(9.97448e-17 0.41078 0)
(0 0.408481 0)
(0 0.40618 0)
(0 0.403862 0)
(0 0.401545 0)
(-9.74273e-17 0.399228 0)
(0 0.396914 0)
(0 0.394602 0)
(1.92115e-16 0.392292 0)
(0 0.389985 0)
(-1.90344e-16 0.38768 0)
(-9.4704e-17 0.385378 0)
(0 0.383078 0)
(-2.81531e-16 0.380781 0)
(0 0.378487 0)
(-1.85916e-16 0.376195 0)
(-9.25315e-17 0.373907 0)
(0 0.371622 0)
(0 0.369339 0)
(0 0.367059 0)
(0 0.364783 0)
(0 0.362509 0)
(0 0.360239 0)
(0 0.357971 0)
(8.91238e-17 0.355707 0)
(0 0.353446 0)
(0 0.351187 0)
(0 0.348932 0)
(-1.74898e-16 0.34668 0)
(0 0.344431 0)
(1.73253e-16 0.342186 0)
(0 0.339943 0)
(0 0.337704 0)
(1.70842e-16 0.335469 0)
(0 0.333236 0)
(0 0.331008 0)
(0 0.328782 0)
(0 0.32656 0)
(0 0.324342 0)
(3.3217e-16 0.322126 0)
(0 0.319916 0)
(-1.64472e-16 0.317708 0)
(-1.63836e-16 0.315503 0)
(0 0.313302 0)
(0 0.311103 0)
(-1.61648e-16 0.308912 0)
(0 0.306723 0)
(0 0.304535 0)
(0 0.302351 0)
(1.5862e-16 0.300173 0)
(-1.57734e-16 0.298 0)
(0 0.295827 0)
(-1.56279e-16 0.293658 0)
(-1.55419e-16 0.291493 0)
(-1.54851e-16 0.289333 0)
(0 0.28718 0)
(1.53171e-16 0.285028 0)
(0 0.282878 0)
(0 0.280736 0)
(0 0.278598 0)
(0 0.276462 0)
(-2.99305e-16 0.274328 0)
(0 0.272199 0)
(0 0.270075 0)
(0 0.267957 0)
(-1.47054e-16 0.265843 0)
(0 0.263732 0)
(0 0.261624 0)
(0 0.259522 0)
(-1.44299e-16 0.257424 0)
(0 0.25533 0)
(0 0.253239 0)
(0 0.251154 0)
(-1.41644e-16 0.249075 0)
(0 0.246999 0)
(0 0.244927 0)
(2.79088e-16 0.242858 0)
(0 0.240793 0)
(-1.38404e-16 0.238734 0)
(-1.37729e-16 0.236682 0)
(0 0.234631 0)
(2.72796e-16 0.232585 0)
(0 0.230545 0)
(0 0.228509 0)
(1.3445e-16 0.226478 0)
(0 0.224451 0)
(-2.66363e-16 0.222429 0)
(-1.32764e-16 0.220413 0)
(0 0.218403 0)
(-1.31323e-16 0.216395 0)
(1.30715e-16 0.214392 0)
(1.30113e-16 0.212394 0)
(0 0.210401 0)
(1.28924e-16 0.208413 0)
(1.28144e-16 0.206429 0)
(0 0.204449 0)
(0 0.202476 0)
(0 0.200507 0)
(-1.25859e-16 0.198545 0)
(0 0.196585 0)
(0 0.194632 0)
(-1.24198e-16 0.192685 0)
(-1.23474e-16 0.190741 0)
(0 0.188803 0)
(-3.67211e-16 0.186872 0)
(0 0.184942 0)
(0 0.183019 0)
(-1.2066e-16 0.181102 0)
(-1.20147e-16 0.17919 0)
(0 0.177282 0)
(0 0.175381 0)
(2.36932e-16 0.173486 0)
(0 0.171594 0)
(0 0.169707 0)
(-3.50496e-16 0.167827 0)
(0 0.165951 0)
(-1.15715e-16 0.164082 0)
(0 0.162218 0)
(0 0.160361 0)
(0 0.158507 0)
(0 0.156658 0)
(0 0.154816 0)
(-2.24976e-16 0.15298 0)
(0 0.151149 0)
(2.22903e-16 0.149323 0)
(0 0.147503 0)
(0 0.145688 0)
(-2.19723e-16 0.14388 0)
(0 0.142076 0)
(0 0.140278 0)
(0 0.138487 0)
(0 0.136701 0)
(0 0.134922 0)
(0 0.133148 0)
(-1.06278e-16 0.131379 0)
(0 0.129616 0)
(0 0.127859 0)
(0 0.126107 0)
(0 0.124362 0)
(0 0.122624 0)
(0 0.12089 0)
(2.05591e-16 0.119162 0)
(2.04845e-16 0.11744 0)
(0 0.115725 0)
(0 0.114015 0)
(-2.01915e-16 0.112312 0)
(0 0.110614 0)
(0 0.108922 0)
(0 0.107237 0)
(0 0.105558 0)
(0 0.103885 0)
(0 0.102217 0)
(0 0.100556 0)
(0 0.0989011 0)
(0 0.0972525 0)
(0 0.0956103 0)
(0 0.0939736 0)
(-1.90988e-16 0.0923434 0)
(0 0.0907198 0)
(0 0.0891019 0)
(0 0.0874906 0)
(0 0.085886 0)
(0 0.0842872 0)
(-1.85549e-16 0.0826944 0)
(-1.8474e-16 0.0811084 0)
(0 0.0795284 0)
(0 0.0779546 0)
(0 0.0763877 0)
(0 0.0748278 0)
(-1.80412e-16 0.0732742 0)
(0 0.071726 0)
(0 0.0701842 0)
(0 0.0686495 0)
(0 0.0671213 0)
(1.76282e-16 0.0655996 0)
(0 0.0640845 0)
(0 0.0625759 0)
(0 0.0610739 0)
(0 0.0595778 0)
(0 0.0580885 0)
(0 0.056606 0)
(0 0.0551302 0)
(0 0.0536613 0)
(0 0.0521986 0)
(0 0.0507421 0)
(0 0.0492926 0)
(-1.66575e-16 0.0478501 0)
(0 0.046414 0)
(0 0.0449843 0)
(0 0.0435618 0)
(0 0.0421464 0)
(0 0.0407369 0)
(-1.61957e-16 0.0393341 0)
(-1.61186e-16 0.0379385 0)
(0 0.0365496 0)
(-1.59667e-16 0.0351674 0)
(0 0.033792 0)
(-1.58176e-16 0.0324235 0)
(0 0.0310618 0)
(0 0.029707 0)
(0 0.0283591 0)
(-1.55276e-16 0.0270181 0)
(0 0.0256841 0)
(-1.53726e-16 0.0243567 0)
(0 0.0230358 0)
(-1.52344e-16 0.0217221 0)
(-1.51662e-16 0.0204154 0)
(0 0.0191159 0)
(0 0.017823 0)
(0 0.0165369 0)
(0 0.0152576 0)
(-1.48212e-16 0.0139856 0)
(-1.47438e-16 0.012721 0)
(-1.46672e-16 0.0114628 0)
(1.4604e-16 0.0102114 0)
(0 0.00896743 0)
(0 0.00773044 0)
(0 0.00650004 0)
(0 0.00527678 0)
(0 0.00406094 0)
(0 0.00285219 0)
(0 0.00165015 0)
(-1.40703e-16 0.000455309 0)
(-1.3989e-16 -0.000732723 0)
(-1.39429e-16 -0.00191363 0)
(0 -0.00308731 0)
(0 -0.00425411 0)
(0 -0.0054135 0)
(0 -0.00656594 0)
(0 -0.00771113 0)
(0 -0.00884931 0)
(-1.34878e-16 -0.00998034 0)
(-1.3413e-16 -0.0111043 0)
(1.33601e-16 -0.0122213 0)
(0 -0.0133308 0)
(-1.32349e-16 -0.014433 0)
(0 -0.0155282 0)
(0 -0.0166165 0)
(0 -0.0176976 0)
(0 -0.0187712 0)
(-3.87658e-16 -0.0198376 0)
(0 -0.0208971 0)
(-1.28047e-16 -0.0219493 0)
(0 -0.0229942 0)
(0 -0.0240318 0)
(0 -0.0250622 0)
(-1.25673e-16 -0.0260852 0)
(0 -0.0271014 0)
(0 -0.0281104 0)
(0 -0.029112 0)
(0 -0.0301061 0)
(0 -0.031093 0)
(0 -0.0320728 0)
(-1.21613e-16 -0.0330453 0)
(-2.42009e-16 -0.0340105 0)
(0 -0.0349684 0)
(0 -0.0359189 0)
(-1.193e-16 -0.0368622 0)
(0 -0.0377981 0)
(0 -0.0387267 0)
(0 -0.0396478 0)
(0 -0.0405619 0)
(0 -0.0414687 0)
(-2.32064e-16 -0.0423679 0)
(0 -0.0432597 0)
(0 -0.0441445 0)
(3.4316e-16 -0.0450219 0)
(0 -0.0458918 0)
(0 -0.0467541 0)
(0 -0.047609 0)
(0 -0.0484568 0)
(0 -0.0492973 0)
(0 -0.0501303 0)
(-1.10651e-16 -0.0509557 0)
(0 -0.0517739 0)
(0 -0.0525848 0)
(0 -0.0533885 0)
(1.08664e-16 -0.0541846 0)
(-2.16218e-16 -0.0549732 0)
(0 -0.0557543 0)
(0 -0.0565281 0)
(-2.13224e-16 -0.0572943 0)
(0 -0.0580529 0)
(0 -0.0588042 0)
(2.10312e-16 -0.0595483 0)
(-2.09273e-16 -0.0602846 0)
(0 -0.0610132 0)
(0 -0.0617346 0)
(0 -0.0624487 0)
(0 -0.0631554 0)
(-2.04474e-16 -0.0638542 0)
(-2.03369e-16 -0.0645453 0)
(0 -0.0652292 0)
(0 -0.0659057 0)
(0 -0.0665745 0)
(-1.99772e-16 -0.0672355 0)
(0 -0.0678891 0)
(0 -0.0685356 0)
(0 -0.0691745 0)
(0 -0.0698058 0)
(0 -0.0704294 0)
(0 -0.0710453 0)
(0 -0.0716535 0)
(0 -0.0722544 0)
(-1.9142e-16 -0.0728473 0)
(0 -0.0734324 0)
(0 -0.0740102 0)
(0 -0.0745806 0)
(0 -0.0751435 0)
(0 -0.0756986 0)
(0 -0.0762458 0)
(0 -0.0767853 0)
(0 -0.0773174 0)
(0 -0.0778414 0)
(0 -0.0783578 0)
(0 -0.0788668 0)
(0 -0.0793677 0)
(0 -0.0798606 0)
(0 -0.080346 0)
(-1.78417e-16 -0.0808235 0)
(0 -0.0812929 0)
(-1.76741e-16 -0.0817545 0)
(-1.75915e-16 -0.0822082 0)
(0 -0.0826545 0)
(0 -0.0830929 0)
(0 -0.0835234 0)
(-1.72688e-16 -0.0839463 0)
(1.71812e-16 -0.0843613 0)
(0 -0.0847681 0)
(0 -0.085167 0)
(-1.69407e-16 -0.0855579 0)
(0 -0.0859404 0)
(0 -0.086315 0)
(0 -0.086682 0)
(-1.66248e-16 -0.0870414 0)
(-1.65436e-16 -0.0873925 0)
(0 -0.0877354 0)
(0 -0.0880706 0)
(0 -0.0883977 0)
(0 -0.0887167 0)
(0 -0.0890275 0)
(0 -0.0893302 0)
(-1.6012e-16 -0.0896246 0)
(0 -0.0899108 0)
(0 -0.0901888 0)
(0 -0.0904583 0)
(0 -0.0907195 0)
(0 -0.0909729 0)
(0 -0.0912174 0)
(0 -0.0914536 0)
(-1.54216e-16 -0.0916814 0)
(-1.53518e-16 -0.0919003 0)
(-1.52756e-16 -0.0921109 0)
(0 -0.0923135 0)
(0 -0.0925076 0)
(0 -0.0926932 0)
(0 -0.0928707 0)
(0 -0.0930396 0)
(-1.48537e-16 -0.0931994 0)
(0 -0.0933506 0)
(-1.47182e-16 -0.0934931 0)
(0 -0.0936265 0)
(0 -0.0937516 0)
(-1.4504e-16 -0.0938685 0)
(0 -0.0939765 0)
(-1.43748e-16 -0.0940755 0)
(0 -0.0941655 0)
(-1.42358e-16 -0.0942466 0)
(-1.41704e-16 -0.0943188 0)
(0 -0.0943819 0)
(0 -0.0944362 0)
(0 -0.0944815 0)
(0 -0.0945177 0)
(0 -0.0945454 0)
(-2.75458e-16 -0.0945633 0)
(0 -0.094572 0)
(0 -0.0945721 0)
(0 -0.094563 0)
(-2.70402e-16 -0.0945439 0)
(0 -0.0945155 0)
(0 -0.0944783 0)
(0 -0.0944318 0)
(-1.32712e-16 -0.0943754 0)
(0 -0.0943094 0)
(0 -0.0942339 0)
(-1.30866e-16 -0.0941484 0)
(0 -0.0940538 0)
(-2.5923e-16 -0.0939494 0)
(-1.29023e-16 -0.0938348 0)
(0 -0.093711 0)
(1.27806e-16 -0.093578 0)
(0 -0.0934353 0)
(0 -0.0932821 0)
(-1.26e-16 -0.0931183 0)
(0 -0.0929453 0)
(0 -0.0927629 0)
(1.24244e-16 -0.0925705 0)
(0 -0.0923682 0)
(0 -0.0921556 0)
(0 -0.0919328 0)
(0 -0.0917 0)
(-2.4279e-16 -0.0914564 0)
(0 -0.0912025 0)
(-1.20232e-16 -0.0909387 0)
(1.1968e-16 -0.0906646 0)
(0 -0.0903802 0)
(1.18549e-16 -0.0900854 0)
(0 -0.0897801 0)
(1.1744e-16 -0.0894643 0)
(1.16913e-16 -0.0891381 0)
(0 -0.0888014 0)
(0 -0.0884539 0)
(0 -0.0880958 0)
(0 -0.0877271 0)
(0 -0.0873476 0)
(0 -0.0869573 0)
(0 -0.0865563 0)
(0 -0.0861447 0)
(0 -0.0857216 0)
(0 -0.0852878 0)
(0 -0.0848434 0)
(-1.10471e-16 -0.0843873 0)
(0 -0.0839208 0)
(0 -0.0834441 0)
(-1.08943e-16 -0.0829563 0)
(0 -0.082457 0)
(0 -0.0819468 0)
(0 -0.0814258 0)
(0 -0.0808939 0)
(0 -0.080351 0)
(-2.11891e-16 -0.0797965 0)
(0 -0.0792311 0)
(-2.09856e-16 -0.0786546 0)
(0 -0.078067 0)
(-1.0393e-16 -0.077469 0)
(0 -0.0768605 0)
(0 -0.0762414 0)
(-1.02484e-16 -0.0756107 0)
(3.06064e-16 -0.0749691 0)
(-1.01532e-16 -0.0743167 0)
(0 -0.0736535 0)
(-1.00568e-16 -0.0729795 0)
(-2.00244e-16 -0.0722939 0)
(0 -0.0715976 0)
(0 -0.0708912 0)
(0 -0.0701741 0)
(0 -0.0694463 0)
(0 -0.0687085 0)
(0 -0.0679598 0)
(-9.68591e-17 -0.0672 0)
(0 -0.0664301 0)
(0 -0.0656506 0)
(-9.55211e-17 -0.0648608 0)
(-9.50654e-17 -0.06406 0)
(9.46406e-17 -0.0632485 0)
(0 -0.0624276 0)
(0 -0.0615972 0)
(0 -0.0607569 0)
(0 -0.0599067 0)
(0 -0.0590467 0)
(0 -0.0581764 0)
(-9.15711e-17 -0.0572959 0)
(0 -0.0564057 0)
(0 -0.0555067 0)
(0 -0.0545989 0)
(8.98709e-17 -0.0536822 0)
(-8.94438e-17 -0.0527564 0)
(-8.90208e-17 -0.0518209 0)
(8.86249e-17 -0.0508766 0)
(0 -0.0499242 0)
(0 -0.048963 0)
(0 -0.0479932 0)
(-1.73929e-16 -0.0470144 0)
(-8.65423e-17 -0.0460271 0)
(0 -0.0450321 0)
(0 -0.0440292 0)
(0 -0.0430175 0)
(-8.49369e-17 -0.0419977 0)
(0 -0.0409707 0)
(-8.41563e-17 -0.0399354 0)
(-8.37403e-17 -0.0388923 0)
(0 -0.0378423 0)
(0 -0.036785 0)
(-8.25769e-17 -0.0357204 0)
(0 -0.0346486 0)
(0 -0.0335698 0)
(0 -0.0324839 0)
(0 -0.0313909 0)
(8.06698e-17 -0.0302911 0)
(0 -0.0291839 0)
(0 -0.0280699 0)
(-1.59067e-16 -0.0269492 0)
(-7.9162e-17 -0.0258213 0)
(-1.57588e-16 -0.0246868 0)
(0 -0.0235464 0)
(0 -0.0224001 0)
(0 -0.0212473 0)
(7.73193e-17 -0.0200882 0)
(0 -0.0189226 0)
(-7.66026e-17 -0.0177507 0)
(0 -0.0165724 0)
(0 -0.0153877 0)
(-7.55436e-17 -0.0141961 0)
(0 -0.0129981 0)
(0 -0.0117937 0)
(-7.44644e-17 -0.0105822 0)
(0 -0.00936508 0)
(0 -0.00814212 0)
(0 -0.00691198 0)
(0 -0.00567549 0)
(0 -0.00443293 0)
(0 -0.00318306 0)
(0 -0.00192605 0)
(-7.17217e-17 -0.000647938 0)
)
;

boundaryField
{
    INLET
    {
        type            cyclic;
    }
    OUTLET
    {
        type            cyclic;
    }
    CENTER
    {
        type            symmetryPlane;
    }
    WALL
    {
        type            extrapolatedCalculated;
        value           uniform (5.24152e-22 0.076926 0);
    }
    frontAndBackPlanes
    {
        type            empty;
    }
}


// ************************************************************************* //
