/*--------------------------------*- C++ -*----------------------------------*\
| =========                 |                                                 |
| \\      /  F ield         | OpenFOAM: The Open Source CFD Toolbox           |
|  \\    /   O peration     | Version:  v1806                                 |
|   \\  /    A nd           | Web:      www.OpenFOAM.com                      |
|    \\/     M anipulation  |                                                 |
\*---------------------------------------------------------------------------*/
FoamFile
{
    version     2.0;
    format      ascii;
    class       volVectorField;
    location    "10000";
    object      grad(p);
}
// * * * * * * * * * * * * * * * * * * * * * * * * * * * * * * * * * * * * * //

dimensions      [0 1 -2 0 0 0 0];


internalField   nonuniform List<vector> 
1025
(
(0 1.48708e-11 0)
(0 1.79123e-11 0)
(0 2.43408e-12 0)
(-3.85063e-30 -8.88139e-13 0)
(0 -1.30589e-13 0)
(0 3.47808e-13 0)
(-3.7967e-30 3.46577e-13 0)
(0 2.70458e-13 0)
(0 2.35173e-13 0)
(0 2.22961e-13 0)
(0 2.14795e-13 0)
(0 2.06819e-13 0)
(0 1.99762e-13 0)
(-3.67396e-30 1.94008e-13 0)
(-3.65673e-30 1.89427e-13 0)
(0 1.85856e-13 0)
(-3.62257e-30 1.83015e-13 0)
(0 1.80699e-13 0)
(0 1.78709e-13 0)
(-3.57183e-30 1.76896e-13 0)
(0 1.75231e-13 0)
(0 1.73757e-13 0)
(3.52192e-30 1.72382e-13 0)
(0 1.70986e-13 0)
(3.48892e-30 1.69801e-13 0)
(0 1.68808e-13 0)
(0 1.67712e-13 0)
(0 1.6666e-13 0)
(0 1.65825e-13 0)
(-3.408e-30 1.64976e-13 0)
(0 1.64215e-13 0)
(6.75329e-30 1.6385e-13 0)
(0 1.63533e-13 0)
(0 1.63229e-13 0)
(0 1.63248e-13 0)
(0 1.63548e-13 0)
(0 1.64064e-13 0)
(0 1.64833e-13 0)
(0 1.65803e-13 0)
(0 1.66998e-13 0)
(0 1.68579e-13 0)
(-6.44244e-30 1.70424e-13 0)
(0 1.72456e-13 0)
(0 1.75006e-13 0)
(0 1.77849e-13 0)
(0 1.80873e-13 0)
(-3.14645e-30 1.8404e-13 0)
(0 1.87578e-13 0)
(0 1.91668e-13 0)
(0 1.95897e-13 0)
(0 2.00357e-13 0)
(6.14763e-30 2.05375e-13 0)
(0 2.10825e-13 0)
(-6.0904e-30 2.15778e-13 0)
(0 2.20959e-13 0)
(0 2.27081e-13 0)
(0 2.3341e-13 0)
(-2.98835e-30 2.39856e-13 0)
(0 2.46592e-13 0)
(0 2.53188e-13 0)
(0 2.59692e-13 0)
(0 2.66867e-13 0)
(0 2.74312e-13 0)
(0 2.81747e-13 0)
(-5.7826e-30 2.88969e-13 0)
(0 2.9682e-13 0)
(0 3.05229e-13 0)
(0 3.13335e-13 0)
(-2.83732e-30 3.21077e-13 0)
(-5.64908e-30 3.28445e-13 0)
(-5.62164e-30 3.35828e-13 0)
(0 3.43144e-13 0)
(5.56962e-30 3.51671e-13 0)
(5.54295e-30 3.61019e-13 0)
(-5.51855e-30 3.68693e-13 0)
(0 3.75449e-13 0)
(0 3.83176e-13 0)
(0 3.91359e-13 0)
(0 3.99279e-13 0)
(0 4.07142e-13 0)
(0 4.15145e-13 0)
(-5.33842e-30 4.2225e-13 0)
(-5.31485e-30 4.28613e-13 0)
(0 4.35814e-13 0)
(0 4.43493e-13 0)
(0 4.50916e-13 0)
(0 4.58214e-13 0)
(0 4.6441e-13 0)
(0 4.70376e-13 0)
(0 4.77401e-13 0)
(0 4.84319e-13 0)
(0 4.90237e-13 0)
(0 4.95999e-13 0)
(0 5.02284e-13 0)
(0 5.08622e-13 0)
(-4.99878e-30 5.14271e-13 0)
(-4.97646e-30 5.19244e-13 0)
(0 5.24419e-13 0)
(0 5.29234e-13 0)
(-4.90668e-30 5.3355e-13 0)
(0 5.39331e-13 0)
(0 5.45135e-13 0)
(0 5.49394e-13 0)
(0 5.5416e-13 0)
(0 5.5921e-13 0)
(-4.77055e-30 5.62907e-13 0)
(0 5.65571e-13 0)
(0 5.70412e-13 0)
(0 5.74983e-13 0)
(0 5.78142e-13 0)
(0 5.81149e-13 0)
(0 5.84044e-13 0)
(-9.23088e-30 5.8632e-13 0)
(4.5943e-30 5.8916e-13 0)
(9.14531e-30 5.94137e-13 0)
(0 5.97431e-13 0)
(0 6.0064e-13 0)
(-9.01788e-30 6.03493e-13 0)
(0 6.0509e-13 0)
(-8.93355e-30 6.06814e-13 0)
(0 6.09571e-13 0)
(-8.84948e-30 6.12441e-13 0)
(0 6.13841e-13 0)
(0 6.16293e-13 0)
(0 6.19811e-13 0)
(0 6.22125e-13 0)
(0 6.22953e-13 0)
(0 6.2337e-13 0)
(8.56243e-30 6.25813e-13 0)
(-8.52362e-30 6.28488e-13 0)
(0 6.30124e-13 0)
(0 6.31358e-13 0)
(0 6.32529e-13 0)
(0 6.33912e-13 0)
(0 6.35454e-13 0)
(-8.28656e-30 6.36902e-13 0)
(0 6.38021e-13 0)
(-8.20858e-30 6.3833e-13 0)
(0 6.38107e-13 0)
(8.13205e-30 6.40496e-13 0)
(0 6.42318e-13 0)
(0 6.42579e-13 0)
(8.01829e-30 6.4522e-13 0)
(-7.98108e-30 6.46119e-13 0)
(-7.94316e-30 6.43788e-13 0)
(0 6.44577e-13 0)
(-7.86942e-30 6.46509e-13 0)
(0 6.45904e-13 0)
(0 6.46241e-13 0)
(-7.75984e-30 6.46081e-13 0)
(0 6.45338e-13 0)
(0 6.46452e-13 0)
(0 6.46065e-13 0)
(0 6.45655e-13 0)
(0 6.46196e-13 0)
(0 6.45702e-13 0)
(7.50815e-30 6.45148e-13 0)
(0 6.43558e-13 0)
(2.23129e-29 6.46557e-13 0)
(0 6.48059e-13 0)
(0 6.4362e-13 0)
(0 6.43289e-13 0)
(0 6.43969e-13 0)
(0 6.43139e-13 0)
(0 6.42692e-13 0)
(0 6.42707e-13 0)
(-7.16407e-30 6.4173e-13 0)
(0 6.40949e-13 0)
(0 6.41725e-13 0)
(-7.06732e-30 6.40508e-13 0)
(0 6.37059e-13 0)
(0 6.35784e-13 0)
(0 6.36859e-13 0)
(0 6.36738e-13 0)
(0 6.35337e-13 0)
(0 6.33407e-13 0)
(0 6.30263e-13 0)
(1.36012e-29 6.32181e-13 0)
(0 6.34099e-13 0)
(1.34794e-29 6.32437e-13 0)
(0 6.30777e-13 0)
(1.33597e-29 6.30244e-13 0)
(0 6.30885e-13 0)
(0 6.27454e-13 0)
(0 6.25935e-13 0)
(0 6.2611e-13 0)
(2.60825e-29 6.26062e-13 0)
(0 6.25325e-13 0)
(0 6.22878e-13 0)
(0 6.22298e-13 0)
(0 6.224e-13 0)
(0 6.21347e-13 0)
(-2.53412e-29 6.19157e-13 0)
(-1.26307e-29 6.16938e-13 0)
(-1.25517e-29 6.138e-13 0)
(1.25125e-29 6.13467e-13 0)
(0 6.16396e-13 0)
(-1.23966e-29 6.13718e-13 0)
(0 6.08079e-13 0)
(0 6.09158e-13 0)
(0 6.10902e-13 0)
(0 6.085e-13 0)
(0 6.05389e-13 0)
(0 6.05268e-13 0)
(-1.19891e-29 6.04931e-13 0)
(-1.19297e-29 6.00316e-13 0)
(0 5.97047e-13 0)
(0 5.97391e-13 0)
(0 5.98013e-13 0)
(0 5.97465e-13 0)
(0 5.95168e-13 0)
(0 5.89745e-13 0)
(2.31038e-29 5.892e-13 0)
(-1.14857e-29 5.86959e-13 0)
(1.14312e-29 5.84478e-13 0)
(0 5.85964e-13 0)
(0 5.83085e-13 0)
(0 5.80427e-13 0)
(0 5.7969e-13 0)
(0 5.80588e-13 0)
(-2.22291e-29 5.7863e-13 0)
(-1.10737e-29 5.74232e-13 0)
(0 5.70811e-13 0)
(0 5.69953e-13 0)
(-2.1826e-29 5.66957e-13 0)
(0 5.6659e-13 0)
(0 5.68994e-13 0)
(0 5.70332e-13 0)
(-2.14183e-29 5.68075e-13 0)
(0 5.60893e-13 0)
(0 5.59871e-13 0)
(0 5.61472e-13 0)
(0 5.59085e-13 0)
(0 5.58341e-13 0)
(-2.08254e-29 5.59513e-13 0)
(-4.14714e-29 5.51678e-13 0)
(0 5.46e-13 0)
(0 5.49515e-13 0)
(0 5.52365e-13 0)
(0 5.49035e-13 0)
(0 5.41599e-13 0)
(0 5.39121e-13 0)
(-2.00618e-29 5.36922e-13 0)
(0 5.31877e-13 0)
(1.98795e-29 5.35964e-13 0)
(0 5.39517e-13 0)
(0 5.34515e-13 0)
(0 5.30363e-13 0)
(0 5.28255e-13 0)
(1.94146e-29 5.29751e-13 0)
(0 5.26735e-13 0)
(0 5.20676e-13 0)
(0 5.18616e-13 0)
(0 5.20219e-13 0)
(0 5.2262e-13 0)
(-1.88669e-29 5.18646e-13 0)
(0 5.1394e-13 0)
(-1.86911e-29 5.14585e-13 0)
(0 5.15219e-13 0)
(-1.85186e-29 5.11955e-13 0)
(-1.84335e-29 5.05465e-13 0)
(-1.83352e-29 5.02722e-13 0)
(-1.82518e-29 5.01702e-13 0)
(0 4.978e-13 0)
(-1.80872e-29 4.97738e-13 0)
(0 4.99049e-13 0)
(0 4.9795e-13 0)
(0 4.96981e-13 0)
(0 4.96782e-13 0)
(0 4.92722e-13 0)
(0 4.88665e-13 0)
(0 4.88391e-13 0)
(0 4.88999e-13 0)
(0 4.87385e-13 0)
(0 4.8185e-13 0)
(0 4.79996e-13 0)
(0 4.81931e-13 0)
(0 4.78674e-13 0)
(0 4.76879e-13 0)
(0 4.78835e-13 0)
(-1.67764e-29 4.72042e-13 0)
(0 4.6373e-13 0)
(0 4.64179e-13 0)
(-1.65458e-29 4.64056e-13 0)
(0 4.64517e-13 0)
(0 4.65568e-13 0)
(-1.63104e-29 4.56055e-13 0)
(0 4.54292e-13 0)
(0 4.62359e-13 0)
(-1.60816e-29 4.59252e-13 0)
(0 4.51312e-13 0)
(0 4.47562e-13 0)
(0 4.48551e-13 0)
(1.5776e-29 4.51602e-13 0)
(0 4.50643e-13 0)
(0 4.4756e-13 0)
(0 4.472e-13 0)
(-3.09834e-29 4.42127e-13 0)
(0 4.3766e-13 0)
(0 4.39362e-13 0)
(-3.05509e-29 4.35734e-13 0)
(0 4.3202e-13 0)
(0 4.32308e-13 0)
(0 4.31284e-13 0)
(0 4.28963e-13 0)
(0 4.26014e-13 0)
(0 4.28281e-13 0)
(-2.95569e-29 4.27871e-13 0)
(0 4.2099e-13 0)
(0 4.19399e-13 0)
(0 4.21588e-13 0)
(-2.9005e-29 4.19211e-13 0)
(0 4.15652e-13 0)
(0 4.15305e-13 0)
(0 4.14261e-13 0)
(0 4.12664e-13 0)
(0 4.11624e-13 0)
(0 4.10511e-13 0)
(-2.80748e-29 4.0515e-13 0)
(0 4.02927e-13 0)
(0 4.0935e-13 0)
(0 4.07688e-13 0)
(0 3.99908e-13 0)
(0 3.96537e-13 0)
(0 3.9433e-13 0)
(2.71564e-29 3.97489e-13 0)
(0 3.97719e-13 0)
(0 3.93727e-13 0)
(0 3.944e-13 0)
(0 3.90405e-13 0)
(0 3.86496e-13 0)
(0 3.88396e-13 0)
(0 3.85082e-13 0)
(0 3.81849e-13 0)
(0 3.81999e-13 0)
(-5.1828e-29 3.74542e-13 0)
(0 3.72951e-13 0)
(0 3.7831e-13 0)
(0 3.77841e-13 0)
(0 3.71753e-13 0)
(0 3.66837e-13 0)
(0 3.68686e-13 0)
(0 3.7052e-13 0)
(-2.49602e-29 3.68986e-13 0)
(-2.48443e-29 3.64108e-13 0)
(0 3.62531e-13 0)
(0 3.63202e-13 0)
(0 3.62823e-13 0)
(-4.87577e-29 3.54724e-13 0)
(0 3.49856e-13 0)
(0 3.51603e-13 0)
(2.40381e-29 3.53384e-13 0)
(4.78611e-29 3.57334e-13 0)
(0 3.54745e-13 0)
(0 3.47879e-13 0)
(0 3.45262e-13 0)
(0 3.47987e-13 0)
(-2.33729e-29 3.45491e-13 0)
(0 3.43e-13 0)
(-2.31593e-29 3.40487e-13 0)
(0 3.36877e-13 0)
(0 3.4166e-13 0)
(0 3.44363e-13 0)
(0 3.40801e-13 0)
(0 3.38288e-13 0)
(0 3.38862e-13 0)
(0 3.44503e-13 0)
(-2.23012e-29 3.41984e-13 0)
(-2.21881e-29 3.24375e-13 0)
(2.20965e-29 3.2196e-13 0)
(0 3.34535e-13 0)
(0 3.40974e-13 0)
(-4.35534e-29 3.29588e-13 0)
(0 3.13378e-13 0)
(4.31629e-29 3.20847e-13 0)
(0 3.29232e-13 0)
(0 3.29721e-13 0)
(-4.25526e-29 3.25347e-13 0)
(0 3.19055e-13 0)
(0 3.20555e-13 0)
(0 3.17236e-13 0)
(0 3.12917e-13 0)
(0 3.15275e-13 0)
(0 3.18615e-13 0)
(0 3.12561e-13 0)
(0 3.08291e-13 0)
(-4.07863e-29 3.07814e-13 0)
(0 3.0552e-13 0)
(0 3.08794e-13 0)
(0 3.09296e-13 0)
(0 3.07904e-13 0)
(-3.98413e-29 3.02855e-13 0)
(0 3.00533e-13 0)
(0 3.07261e-13 0)
(-3.92887e-29 3.07675e-13 0)
(-3.90972e-29 3.00044e-13 0)
(0 2.93369e-13 0)
(0 2.93819e-13 0)
(0 2.96e-13 0)
(0 2.88488e-13 0)
(3.81977e-29 2.99335e-13 0)
(-3.80168e-29 3.04135e-13 0)
(0 2.86289e-13 0)
(0 2.90962e-13 0)
(0 2.99081e-13 0)
(0 2.96873e-13 0)
(-3.71371e-29 2.88758e-13 0)
(0 2.82329e-13 0)
(0 2.84352e-13 0)
(0 2.87229e-13 0)
(0 2.92582e-13 0)
(0 2.92066e-13 0)
(-3.61067e-29 2.84923e-13 0)
(0 2.76997e-13 0)
(0 2.74851e-13 0)
(0 2.78486e-13 0)
(0 2.80469e-13 0)
(0 2.84002e-13 0)
(0 2.81063e-13 0)
(0 2.73331e-13 0)
(0 2.76795e-13 0)
(-3.46141e-29 2.75526e-13 0)
(0 2.7104e-13 0)
(0 2.68238e-13 0)
(0 2.73209e-13 0)
(-3.3955e-29 2.79693e-13 0)
(0 2.67567e-13 0)
(0 2.61644e-13 0)
(0 2.6802e-13 0)
(0 2.6681e-13 0)
(-3.31828e-29 2.58007e-13 0)
(0 2.5826e-13 0)
(-3.28657e-29 2.58507e-13 0)
(0 2.57228e-13 0)
(0 2.61963e-13 0)
(-3.24121e-29 2.57794e-13 0)
(0 2.53594e-13 0)
(-3.21095e-29 2.53858e-13 0)
(0 2.51159e-13 0)
(0 2.51389e-13 0)
(0 2.53069e-13 0)
(-3.15003e-29 2.47562e-13 0)
(3.13669e-29 2.49207e-13 0)
(-3.12043e-29 2.50855e-13 0)
(0 2.45373e-13 0)
(0 2.40006e-13 0)
(0 2.41611e-13 0)
(0 2.48838e-13 0)
(0 2.46242e-13 0)
(0 2.4502e-13 0)
(0 2.38328e-13 0)
(0 2.33031e-13 0)
(0 2.41432e-13 0)
(0 2.52453e-13 0)
(-5.92776e-29 2.32386e-13 0)
(0 2.08375e-13 0)
(5.87353e-29 2.30041e-13 0)
(0 2.48884e-13 0)
(0 2.38377e-13 0)
(0 2.25345e-13 0)
(0 2.28155e-13 0)
(0 2.44002e-13 0)
(-5.70984e-29 2.31166e-13 0)
(0 2.07982e-13 0)
(0 2.13368e-13 0)
(0 2.22578e-13 0)
(0 2.26572e-13 0)
(0 2.30496e-13 0)
(-5.55023e-29 2.18028e-13 0)
(0 2.15625e-13 0)
(-5.49951e-29 2.17107e-13 0)
(0 2.10994e-13 0)
(0 2.12404e-13 0)
(0 2.12563e-13 0)
(-5.39627e-29 2.10315e-13 0)
(5.37219e-29 2.12875e-13 0)
(0 2.14247e-13 0)
(0 2.08327e-13 0)
(0 2.07284e-13 0)
(-5.27219e-29 1.91975e-13 0)
(1.04927e-28 2.02758e-13 0)
(0 2.20682e-13 0)
(0 2.0666e-13 0)
(0 2.04381e-13 0)
(0 2.07985e-13 0)
(0 2.04641e-13 0)
(0 2.04754e-13 0)
(0 2.0256e-13 0)
(0 1.95815e-13 0)
(0 2.01571e-13 0)
(-5.00632e-29 2.06221e-13 0)
(-9.966e-29 1.96211e-13 0)
(0 1.82921e-13 0)
(9.8715e-29 1.84156e-13 0)
(0 1.93163e-13 0)
(0 1.93264e-13 0)
(0 1.94446e-13 0)
(-4.84389e-29 1.89125e-13 0)
(0 1.8164e-13 0)
(0 1.80684e-13 0)
(9.55322e-29 2.01086e-13 0)
(0 2.15003e-13 0)
(0 1.96948e-13 0)
(0 1.91675e-13 0)
(0 2.01151e-13 0)
(0 2.02186e-13 0)
(0 1.99044e-13 0)
(0 1.98019e-13 0)
(0 2.01078e-13 0)
(0 2.00023e-13 0)
(4.55734e-29 2.05021e-13 0)
(9.07174e-29 2.21686e-13 0)
(0 2.18557e-13 0)
(0 2.05839e-13 0)
(-4.47267e-29 2.02753e-13 0)
(-8.90192e-29 2.01664e-13 0)
(-8.86096e-29 2.00603e-13 0)
(0 2.01502e-13 0)
(-4.38908e-29 1.90731e-13 0)
(4.36818e-29 1.91578e-13 0)
(0 2.09836e-13 0)
(-1.29838e-28 1.99193e-13 0)
(-4.30664e-29 1.82838e-13 0)
(0 1.93209e-13 0)
(-8.53503e-29 1.86609e-13 0)
(0 1.76161e-13 0)
(-4.22724e-29 1.82694e-13 0)
(-8.41569e-29 1.76177e-13 0)
(-8.37543e-29 1.67834e-13 0)
(0 1.74229e-13 0)
(0 1.80627e-13 0)
(0 1.76031e-13 0)
(0 1.75066e-13 0)
(0 1.75905e-13 0)
(0 1.69607e-13 0)
(0 1.7044e-13 0)
(0 1.81867e-13 0)
(0 1.93144e-13 0)
(-1.19871e-28 1.78205e-13 0)
(-3.97673e-29 1.51155e-13 0)
(0 1.4686e-13 0)
(1.18179e-28 1.7004e-13 0)
(0 1.8456e-13 0)
(0 1.69952e-13 0)
(0 1.70667e-13 0)
(0 1.69791e-13 0)
(0 1.60478e-13 0)
(0 1.61242e-13 0)
(0 1.5707e-13 0)
(0 1.447e-13 0)
(3.77633e-29 1.63459e-13 0)
(0 1.87033e-13 0)
(-3.73967e-29 1.71432e-13 0)
(-7.45041e-29 1.52731e-13 0)
(0 1.53428e-13 0)
(0 1.63806e-13 0)
(-7.35088e-29 1.66162e-13 0)
(0 1.58824e-13 0)
(0 1.48439e-13 0)
(0 1.44584e-13 0)
(7.21322e-29 1.53138e-13 0)
(0 1.56825e-13 0)
(0 1.5886e-13 0)
(0 1.67093e-13 0)
(-1.41353e-28 1.57181e-13 0)
(-7.04179e-29 1.26379e-13 0)
(0 1.13668e-13 0)
(6.96539e-29 1.3663e-13 0)
(0 1.50726e-13 0)
(0 1.44139e-13 0)
(0 1.44713e-13 0)
(0 1.52446e-13 0)
(-6.80541e-29 1.35725e-13 0)
(0 1.19164e-13 0)
(0 1.32821e-13 0)
(0 1.49188e-13 0)
(0 1.42722e-13 0)
(-6.65261e-29 1.36119e-13 0)
(-6.61832e-29 1.27021e-13 0)
(0 1.24906e-13 0)
(0 1.31146e-13 0)
(0 1.16606e-13 0)
(0 1.21346e-13 0)
(0 1.42448e-13 0)
(-6.44124e-29 1.24225e-13 0)
(0 9.92271e-14 0)
(0 1.0658e-13 0)
(0 1.37621e-13 0)
(-6.31452e-29 1.4752e-13 0)
(0 1.17974e-13 0)
(-6.26319e-29 9.38271e-14 0)
(0 8.28193e-14 0)
(6.20267e-29 1.08022e-13 0)
(0 1.22886e-13 0)
(0 1.01811e-13 0)
(1.22281e-28 1.13742e-13 0)
(0 1.35761e-13 0)
(-6.05638e-29 1.20085e-13 0)
(-6.0374e-29 9.70542e-14 0)
(-5.99978e-29 8.40717e-14 0)
(0 7.37042e-14 0)
(0 8.78421e-14 0)
(0 1.09224e-13 0)
(0 1.01389e-13 0)
(5.8628e-29 9.59088e-14 0)
(5.82732e-29 1.09585e-13 0)
(0 1.13739e-13 0)
(0 1.06034e-13 0)
(0 1.05425e-13 0)
(0 9.55124e-14 0)
(0 8.79377e-14 0)
(0 1.08115e-13 0)
(0 1.14398e-13 0)
(0 9.5525e-14 0)
(0 1.08461e-13 0)
(-5.56627e-29 9.44778e-14 0)
(5.53428e-29 8.02825e-14 0)
(0 1.17574e-13 0)
(-1.0974e-28 1.14774e-13 0)
(-5.46363e-29 7.46124e-14 0)
(5.43281e-29 7.18771e-14 0)
(0 8.88836e-14 0)
(5.38722e-29 9.68846e-14 0)
(0 1.09082e-13 0)
(0 1.14815e-13 0)
(-5.31291e-29 9.10042e-14 0)
(0 7.56197e-14 0)
(0 7.94281e-14 0)
(0 7.6856e-14 0)
(0 8.46043e-14 0)
(0 7.17982e-14 0)
(0 7.33466e-14 0)
(5.14267e-29 1.05347e-13 0)
(-5.11535e-29 9.67411e-14 0)
(0 6.80369e-14 0)
(1.01365e-28 8.5435e-14 0)
(0 1.06726e-13 0)
(0 1.08045e-13 0)
(-4.99593e-29 8.59723e-14 0)
(0 6.78762e-14 0)
(0 7.90422e-14 0)
(0 8.43521e-14 0)
(0 8.38619e-14 0)
(0 8.52181e-14 0)
(0 9.21503e-14 0)
(-4.83295e-29 8.97394e-14 0)
(0 8.91281e-14 0)
(-4.78492e-29 9.41069e-14 0)
(-4.76715e-29 8.44139e-14 0)
(0 7.8443e-14 0)
(0 8.69707e-14 0)
(0 7.38849e-14 0)
(9.34917e-29 5.72343e-14 0)
(9.31526e-29 8.17188e-14 0)
(0 1.00725e-13 0)
(0 1.00067e-13 0)
(-4.59101e-29 8.37886e-14 0)
(-9.13846e-29 6.41466e-14 0)
(0 7.23487e-14 0)
(0 8.90513e-14 0)
(0 8.84965e-14 0)
(0 7.60631e-14 0)
(0 8.22447e-14 0)
(0 9.17851e-14 0)
(-8.84468e-29 7.63337e-14 0)
(0 6.09961e-14 0)
(0 7.36317e-14 0)
(-8.71462e-29 8.29707e-14 0)
(-8.68514e-29 7.11518e-14 0)
(0 7.7049e-14 0)
(0 8.14054e-14 0)
(0 5.71534e-14 0)
(0 5.51136e-14 0)
(0 8.13402e-14 0)
(-1.68756e-28 7.15983e-14 0)
(-8.401e-29 4.63726e-14 0)
(0 5.5215e-14 0)
(-8.31935e-29 6.10258e-14 0)
(0 6.06345e-14 0)
(-8.24809e-29 6.32949e-14 0)
(0 5.38858e-14 0)
(0 5.05037e-14 0)
(0 5.60932e-14 0)
(0 5.57679e-14 0)
(0 4.9578e-14 0)
(0 6.07799e-14 0)
(0 6.62143e-14 0)
(0 5.71823e-14 0)
(0 5.11345e-14 0)
(0 5.07475e-14 0)
(0 4.48747e-14 0)
(0 3.89726e-14 0)
(0 4.97886e-14 0)
(0 5.77027e-14 0)
(-7.68068e-29 4.37242e-14 0)
(0 3.25205e-14 0)
(0 4.04035e-14 0)
(-7.57495e-29 3.74897e-14 0)
(0 3.98409e-14 0)
(-7.50119e-29 4.22639e-14 0)
(0 2.88974e-14 0)
(0 3.12403e-14 0)
(0 5.17077e-14 0)
(0 4.88774e-14 0)
(-7.3299e-29 3.57614e-14 0)
(0 3.55211e-14 0)
(0 3.27715e-14 0)
(0 3.50282e-14 0)
(-7.19302e-29 2.73976e-14 0)
(0 3.45147e-14 0)
(0 5.1526e-14 0)
(-7.09366e-29 4.38871e-14 0)
(-7.06115e-29 3.15056e-14 0)
(0 3.3631e-14 0)
(-6.99067e-29 4.05882e-14 0)
(0 3.79309e-14 0)
(-6.92781e-29 4.0033e-14 0)
(0 2.11391e-14 0)
(0 6.96395e-15 0)
(0 2.07544e-14 0)
(0 3.20678e-14 0)
(0 4.09561e-14 0)
(0 4.29779e-14 0)
(-6.70472e-29 3.14807e-14 0)
(0 1.56415e-14 0)
(6.64114e-29 1.99071e-14 0)
(0 2.86149e-14 0)
(6.57875e-29 3.70936e-14 0)
(-6.54522e-29 3.47454e-14 0)
(0 2.15535e-14 0)
(0 2.35466e-14 0)
(0 2.97459e-14 0)
(0 4.00749e-14 0)
(-6.39844e-29 3.56618e-14 0)
(-6.36145e-29 2.08291e-14 0)
(0 1.65436e-14 0)
(-6.30419e-29 1.43847e-14 0)
(0 1.6301e-14 0)
(0 1.82325e-14 0)
(0 1.60906e-14 0)
(0 2.79101e-14 0)
(-6.15805e-29 3.1744e-14 0)
(0 1.18598e-14 0)
(-6.09954e-29 -5.82375e-15 0)
(0 7.71147e-15 0)
(-6.04688e-29 1.73905e-14 0)
(0 1.94842e-15 0)
(0 1.8922e-15 0)
(0 1.31937e-14 0)
(0 2.0611e-14 0)
(0 3.53056e-14 0)
(-1.76286e-28 1.49079e-14 0)
(0 -1.87613e-15 0)
(-5.82292e-29 1.82034e-14 0)
(0 1.44987e-14 0)
(-5.76626e-29 7.19182e-15 0)
(0 1.06952e-14 0)
(0 8.88041e-15 0)
(0 1.40212e-14 0)
(0 2.4423e-14 0)
(0 2.08082e-14 0)
(0 1.54988e-14 0)
(0 1.36696e-14 0)
(1.11085e-28 2.53844e-14 0)
(0 2.86392e-14 0)
(-5.50266e-29 1.00691e-14 0)
(0 6.62156e-15 0)
(0 1.6461e-14 0)
(0 1.3108e-14 0)
(0 1.29703e-14 0)
(-5.37594e-29 1.29249e-14 0)
(0 1.5972e-14 0)
(-1.06479e-28 2.54147e-14 0)
(0 3.1514e-14 0)
(-1.0553e-28 1.57414e-14 0)
(0 -9.29752e-15 0)
(0 -1.5396e-14 0)
(1.56051e-28 1.82427e-14 0)
(0 3.95753e-14 0)
(-5.15644e-29 9.1196e-15 0)
(0 -2.9966e-15 0)
(0 2.97207e-15 0)
(0 8.85259e-15 0)
(0 1.46442e-14 0)
(-1.00636e-28 8.76346e-15 0)
(0 9.80789e-18 0)
(0 -5.69909e-15 0)
(0 -1.98687e-14 0)
(0 5.5277e-15 0)
(-9.83244e-29 2.80714e-14 0)
(0 1.39268e-14 0)
(0 8.30331e-15 0)
(0 2.75991e-15 0)
(0 -5.40826e-15 0)
(0 -5.40835e-15 0)
(0 1.60286e-14 0)
(-9.51664e-29 5.43198e-15 0)
(9.46985e-29 -7.95835e-15 0)
(0 7.85854e-15 0)
(0 1.29993e-14 0)
(0 2.57763e-14 0)
(-9.29839e-29 2.31083e-14 0)
(0 -2.48447e-15 0)
(0 -1.51272e-14 0)
(0 -4.87387e-17 0)
(0 2.48268e-14 0)
(0 1.98011e-14 0)
(-9.03662e-29 -2.41067e-15 0)
(0 -2.44895e-15 0)
(0 9.63114e-15 0)
(0 1.9128e-14 0)
(-8.87014e-29 1.19238e-14 0)
(-8.82442e-29 7.26983e-18 0)
(0 1.16546e-14 0)
(0 2.08996e-14 0)
(0 7.95943e-17 0)
(0 -1.37163e-14 0)
(0 6.74917e-15 0)
(0 2.02649e-14 0)
(0 1.56442e-14 0)
(0 1.33025e-14 0)
(0 8.82008e-15 0)
(0 6.54153e-15 0)
(8.38272e-29 1.94489e-14 0)
(0 1.72443e-14 0)
(0 6.39367e-15 0)
(0 1.47854e-14 0)
(0 1.68079e-14 0)
(0 1.45723e-14 0)
(0 2.68306e-14 0)
(0 3.07845e-14 0)
(-8.07095e-29 1.8334e-14 0)
(0 6.08317e-15 0)
(0 -5.9777e-15 0)
(0 -3.99884e-15 0)
(0 7.8756e-15 0)
(0 1.17427e-14 0)
(-7.85293e-29 -7.68374e-15 0)
(7.8131e-29 -7.77743e-15 0)
(0 1.14659e-14 0)
(0 1.32663e-14 0)
(0 7.558e-15 0)
(-7.66539e-29 -7.42572e-15 0)
(0 -1.84879e-14 0)
(0 -7.39885e-15 0)
(0 -5.40766e-15 0)
(-7.52316e-29 -2.34654e-14 0)
(0 -2.51102e-14 0)
(0 -8.9388e-15 0)
(0 -1.73979e-15 0)
(0 -8.74228e-15 0)
(0 -6.95512e-15 0)
(0 -8.88634e-18 0)
(0 -8.49342e-15 0)
(0 -1.69642e-14 0)
(7.21322e-29 3.30102e-15 0)
(-7.17961e-29 -1.155e-14 0)
(7.14631e-29 -1.17083e-14 0)
(0 1.64406e-14 0)
(0 8.16975e-15 0)
(0 2.09358e-14 0)
(-1.40259e-28 2.72958e-14 0)
(0 -1.51496e-15 0)
(-6.94655e-29 -2.52041e-14 0)
(0 -9.47104e-15 0)
(-6.88139e-29 6.23562e-15 0)
(0 6.13587e-15 0)
(-6.81745e-29 6.13581e-15 0)
(0 6.0382e-15 0)
(-6.75469e-29 1.20231e-14 0)
(0 1.19256e-14 0)
(-6.69307e-29 5.21741e-17 0)
(0 -8.80505e-15 0)
(0 2.87553e-15 0)
(-6.59565e-29 8.66811e-15 0)
(0 1.14266e-14 0)
(-6.53689e-29 8.55392e-15 0)
(0 8.41352e-15 0)
(-6.47371e-29 1.39735e-14 0)
(0 5.56306e-15 0)
(-6.41442e-29 2.73873e-15 0)
(0 8.16495e-15 0)
(-6.35358e-29 4.75062e-17 0)
(0 7.9682e-15 0)
(0 3.71718e-14 0)
(-1.25264e-28 1.33235e-14 0)
(0 -1.04985e-14 0)
(0 1.80828e-14 0)
(0 3.60105e-14 0)
(-1.84447e-28 2.6919e-15 0)
(0 -1.52358e-14 0)
(-6.09231e-29 -2.49677e-15 0)
(0 1.23752e-14 0)
(0 1.97895e-14 0)
(0 1.71046e-14 0)
(0 2.1862e-14 0)
(-5.95112e-29 2.1664e-14 0)
(0 3.10128e-14 0)
(-1.17884e-28 2.60987e-14 0)
(-1.17345e-28 -9.29373e-15 0)
(0 -2.79655e-14 0)
(0 4.51088e-15 0)
(0 2.97984e-14 0)
(0 2.72676e-14 0)
(-1.14596e-28 2.35742e-15 0)
(0 -2.2345e-14 0)
(0 -1.11257e-14 0)
(1.12999e-28 1.5325e-14 0)
(0 2.18374e-14 0)
(0 8.66706e-15 0)
(-5.57231e-29 2.15463e-15 0)
(0 2.11921e-15 0)
(0 1.92645e-17 0)
(0 -2.09812e-15 0)
(-5.46751e-29 -1.03246e-14 0)
(0 -1.23732e-14 0)
(0 -8.1413e-15 0)
(1.0782e-28 3.98011e-15 0)
(-5.36658e-29 -3.91078e-15 0)
(0 -2.19095e-14 0)
(5.31658e-29 1.9015e-15 0)
(0 1.17758e-14 0)
(0 1.78984e-17 0)
(0 -3.84723e-15 0)
(0 -1.40295e-17 0)
(0 5.6722e-15 0)
(-1.03336e-28 -5.57534e-15 0)
(0 -1.11994e-14 0)
(0 1.82469e-15 0)
(0 1.85518e-15 0)
(0 7.22229e-15 0)
(0 1.9807e-14 0)
(-1.00472e-28 9.06026e-17 0)
(0 -1.24347e-14 0)
(0 8.73613e-15 0)
(0 1.39708e-14 0)
(0 3.47154e-15 0)
(0 1.70825e-15 0)
(0 3.40117e-15 0)
(9.72385e-29 1.6805e-14 0)
(0 3.01021e-14 0)
(0 1.99469e-14 0)
(0 1.80618e-14 0)
(0 2.61039e-14 0)
(-9.49904e-29 1.9444e-14 0)
(0 4.84804e-15 0)
(9.40912e-29 9.49906e-15 0)
(0 2.99637e-14 0)
(-9.3209e-29 1.10705e-14 0)
(9.2788e-29 2.15931e-14 0)
(-9.23431e-29 4.16646e-14 0)
(0 2.90134e-14 0)
(0 2.88123e-14 0)
(0 1.35713e-14 0)
(0 5.95296e-15 0)
(0 2.06582e-14 0)
(0 2.93497e-14 0)
(0 2.18398e-14 0)
(0 1.58804e-14 0)
(0 2.85742e-14 0)
(0 2.84565e-14 0)
(0 1.96949e-14 0)
(0 2.79316e-14 0)
(0 2.63476e-14 0)
(-8.64615e-29 6.93402e-15 0)
(8.60751e-29 4.04254e-15 0)
(8.56683e-29 2.56602e-14 0)
(0 3.2208e-14 0)
(0 2.92793e-14 0)
(0 3.43046e-14 0)
(0 3.27665e-14 0)
(-8.36906e-29 2.21021e-14 0)
(0 1.80416e-14 0)
(0 2.17129e-14 0)
(-8.2503e-29 1.52552e-14 0)
(0 7.53664e-15 0)
(8.17371e-29 2.98656e-14 0)
(-8.13487e-29 3.71817e-14 0)
(-8.09639e-29 1.23273e-14 0)
(0 1.21314e-14 0)
(0 2.41628e-14 0)
(0 2.6354e-14 0)
(0 3.56348e-14 0)
(-7.90936e-29 2.36614e-14 0)
(0 1.92925e-17 0)
(0 4.60487e-15 0)
(0 2.0692e-14 0)
(0 2.05798e-14 0)
(0 1.58442e-14 0)
(0 2.91586e-14 0)
(-7.65397e-29 2.01369e-14 0)
(-7.61613e-29 4.40268e-15 0)
(-7.5824e-29 6.58603e-15 0)
(0 1.30104e-14 0)
(0 1.51228e-14 0)
(0 1.28186e-14 0)
(0 2.12015e-14 0)
(0 8.48808e-15 0)
(0 -2.11246e-15 0)
(7.33688e-29 2.26907e-14 0)
(-7.3021e-29 2.26565e-14 0)
(0 1.6233e-14 0)
(0 1.6199e-14 0)
(0 2.0102e-15 0)
(-1.43325e-28 -9.88366e-15 0)
(0 -1.38036e-14 0)
(0 -5.86314e-15 0)
(0 -5.79677e-15 0)
(0 -3.26398e-17 0)
(0 7.60925e-15 0)
(-6.96696e-29 -3.72257e-15 0)
(0 -9.37238e-15 0)
(0 1.82977e-15 0)
(-6.87065e-29 1.86167e-15 0)
(0 -3.64283e-15 0)
(0 7.17275e-15 0)
(-1.3545e-28 3.64161e-15 0)
(-6.74286e-29 -1.24068e-14 0)
(0 -8.81202e-15 0)
(0 -1.54174e-17 0)
(0 5.17105e-15 0)
(0 -3.37412e-15 0)
(0 -8.49834e-15 0)
(0 1.43017e-15 0)
(-6.52305e-29 3.11754e-15 0)
)
;

boundaryField
{
    INLET
    {
        type            cyclic;
    }
    OUTLET
    {
        type            cyclic;
    }
    CENTER
    {
        type            symmetryPlane;
    }
    WALL
    {
        type            extrapolatedCalculated;
        value           uniform (0 1.48708e-11 0);
    }
    frontAndBackPlanes
    {
        type            empty;
    }
}


// ************************************************************************* //
