/*--------------------------------*- C++ -*----------------------------------*\
| =========                 |                                                 |
| \\      /  F ield         | OpenFOAM: The Open Source CFD Toolbox           |
|  \\    /   O peration     | Version:  v1806                                 |
|   \\  /    A nd           | Web:      www.OpenFOAM.com                      |
|    \\/     M anipulation  |                                                 |
\*---------------------------------------------------------------------------*/
FoamFile
{
    version     2.0;
    format      ascii;
    class       volScalarField;
    location    "10000";
    object      k;
}
// * * * * * * * * * * * * * * * * * * * * * * * * * * * * * * * * * * * * * //

dimensions      [0 2 -2 0 0 0 0];


internalField   nonuniform List<scalar> 
1025
(
3.89062e-07
5.55096e-06
1.68009e-05
3.42489e-05
5.80064e-05
8.81866e-05
0.000124904
0.000168274
0.000218413
0.000275439
0.00033947
0.000410626
0.000489023
0.000574781
0.000668016
0.000768843
0.000877375
0.000993723
0.00111799
0.00125028
0.00139067
0.00153925
0.0016961
0.00186126
0.00203477
0.00221665
0.00240688
0.00260542
0.0028122
0.00302707
0.00324991
0.00348044
0.00371842
0.00396352
0.0042153
0.00447326
0.00473686
0.0050055
0.00527855
0.00555524
0.00583481
0.00611652
0.00639956
0.00668315
0.00696651
0.00724894
0.00752975
0.00780826
0.00808391
0.00835621
0.00862469
0.00888893
0.00914861
0.00940346
0.00965327
0.0098979
0.0101372
0.0103712
0.0105997
0.0108228
0.0110406
0.011253
0.0114603
0.0116625
0.0118598
0.0120522
0.0122399
0.0124232
0.0126021
0.0127768
0.0129475
0.0131144
0.0132775
0.0134372
0.0135935
0.0137466
0.0138966
0.0140438
0.0141881
0.0143299
0.0144691
0.0146059
0.0147405
0.014873
0.0150034
0.0151318
0.0152585
0.0153833
0.0155066
0.0156282
0.0157484
0.0158672
0.0159846
0.0161007
0.0162157
0.0163295
0.0164422
0.0165539
0.0166646
0.0167744
0.0168833
0.0169914
0.0170988
0.0172053
0.0173112
0.0174165
0.0175211
0.0176251
0.0177286
0.0178315
0.017934
0.0180359
0.0181375
0.0182387
0.0183394
0.0184399
0.0185399
0.0186397
0.0187392
0.0188384
0.0189374
0.0190362
0.0191347
0.0192331
0.0193313
0.0194293
0.0195272
0.019625
0.0197226
0.0198202
0.0199177
0.0200151
0.0201125
0.0202098
0.0203071
0.0204044
0.0205016
0.0205989
0.0206962
0.0207935
0.0208908
0.0209882
0.0210857
0.0211832
0.0212807
0.0213784
0.0214761
0.021574
0.0216719
0.0217699
0.0218681
0.0219664
0.0220648
0.0221633
0.022262
0.0223608
0.0224598
0.022559
0.0226583
0.0227578
0.0228575
0.0229573
0.0230573
0.0231576
0.023258
0.0233586
0.0234594
0.0235605
0.0236617
0.0237632
0.0238648
0.0239668
0.024069
0.0241714
0.024274
0.0243768
0.0244799
0.0245833
0.0246869
0.0247908
0.0248949
0.0249992
0.0251038
0.0252087
0.0253139
0.0254193
0.0255251
0.0256311
0.0257373
0.0258438
0.0259507
0.0260578
0.0261652
0.0262728
0.0263808
0.0264891
0.0265977
0.0267065
0.0268157
0.0269252
0.0270349
0.0271449
0.0272553
0.027366
0.027477
0.0275883
0.0276999
0.0278118
0.027924
0.0280366
0.0281495
0.0282627
0.0283762
0.02849
0.0286042
0.0287186
0.0288334
0.0289485
0.029064
0.0291797
0.0292959
0.0294123
0.029529
0.0296461
0.0297635
0.0298813
0.0299994
0.0301178
0.0302366
0.0303557
0.0304751
0.0305949
0.030715
0.0308355
0.0309563
0.0310773
0.0311988
0.0313206
0.0314427
0.0315652
0.031688
0.0318112
0.0319347
0.0320585
0.0321827
0.0323072
0.0324321
0.0325573
0.0326829
0.0328088
0.032935
0.0330616
0.0331885
0.0333158
0.0334434
0.0335715
0.0336998
0.0338284
0.0339574
0.0340867
0.0342164
0.0343464
0.0344768
0.0346076
0.0347386
0.03487
0.0350018
0.0351339
0.0352663
0.0353991
0.0355322
0.0356657
0.0357995
0.0359336
0.0360681
0.0362029
0.0363381
0.0364736
0.0366095
0.0367457
0.0368823
0.0370192
0.0371564
0.037294
0.0374319
0.0375701
0.0377087
0.0378476
0.0379869
0.0381265
0.0382664
0.0384067
0.0385473
0.0386882
0.0388295
0.0389711
0.039113
0.0392553
0.0393979
0.0395409
0.0396841
0.0398277
0.0399716
0.0401159
0.0402605
0.0404054
0.0405506
0.0406962
0.0408421
0.0409883
0.0411348
0.0412817
0.0414289
0.0415764
0.0417242
0.0418723
0.0420208
0.0421696
0.0423187
0.0424681
0.0426178
0.0427679
0.0429182
0.0430689
0.0432199
0.0433712
0.0435228
0.0436747
0.0438269
0.0439794
0.0441322
0.0442854
0.0444388
0.0445926
0.0447466
0.0449009
0.0450555
0.0452105
0.0453657
0.0455213
0.0456771
0.0458332
0.0459896
0.0461463
0.0463032
0.0464605
0.0466181
0.0467759
0.046934
0.0470924
0.0472511
0.0474101
0.0475694
0.0477289
0.0478887
0.0480488
0.0482091
0.0483698
0.0485307
0.0486918
0.0488532
0.0490149
0.0491769
0.0493391
0.0495016
0.0496643
0.0498273
0.0499905
0.0501541
0.0503178
0.0504818
0.0506461
0.0508106
0.0509754
0.0511404
0.0513056
0.0514711
0.0516368
0.0518027
0.0519689
0.0521353
0.052302
0.0524689
0.052636
0.0528034
0.0529709
0.0531388
0.0533068
0.053475
0.0536435
0.0538121
0.053981
0.0541501
0.0543194
0.0544889
0.0546586
0.0548285
0.0549986
0.0551689
0.0553394
0.0555102
0.055681
0.0558521
0.0560234
0.0561949
0.0563665
0.0565383
0.0567103
0.0568825
0.0570548
0.0572274
0.0574
0.0575729
0.0577459
0.0579191
0.0580925
0.058266
0.0584396
0.0586134
0.0587874
0.0589615
0.0591358
0.0593102
0.0594847
0.0596594
0.0598342
0.0600091
0.0601842
0.0603594
0.0605347
0.0607102
0.0608857
0.0610614
0.0612372
0.0614131
0.0615891
0.0617652
0.0619414
0.0621177
0.0622942
0.0624707
0.0626473
0.062824
0.0630007
0.0631776
0.0633545
0.0635315
0.0637086
0.0638857
0.0640629
0.0642402
0.0644176
0.064595
0.0647724
0.0649499
0.0651275
0.0653051
0.0654827
0.0656604
0.0658381
0.0660158
0.0661936
0.0663714
0.0665492
0.0667271
0.0669049
0.0670827
0.0672606
0.0674385
0.0676163
0.0677942
0.0679721
0.0681499
0.0683278
0.0685056
0.0686834
0.0688612
0.0690389
0.0692166
0.0693943
0.069572
0.0697496
0.0699271
0.0701046
0.0702821
0.0704595
0.0706368
0.0708141
0.0709913
0.0711684
0.0713455
0.0715224
0.0716993
0.0718761
0.0720528
0.0722294
0.0724059
0.0725823
0.0727586
0.0729348
0.0731109
0.0732868
0.0734626
0.0736383
0.0738138
0.0739892
0.0741645
0.0743396
0.0745146
0.0746894
0.0748641
0.0750386
0.0752129
0.0753871
0.0755611
0.0757349
0.0759086
0.076082
0.0762553
0.0764283
0.0766012
0.0767738
0.0769462
0.0771184
0.0772904
0.0774621
0.0776337
0.0778049
0.0779759
0.0781467
0.0783173
0.0784875
0.0786575
0.0788273
0.0789967
0.0791659
0.0793348
0.0795035
0.0796718
0.0798399
0.0800076
0.080175
0.0803422
0.080509
0.0806754
0.0808416
0.0810074
0.0811729
0.081338
0.0815028
0.0816673
0.0818313
0.0819951
0.0821584
0.0823214
0.0824841
0.0826462
0.082808
0.0829695
0.0831306
0.0832912
0.0834514
0.0836113
0.0837707
0.0839297
0.0840883
0.0842463
0.0844039
0.0845612
0.0847179
0.0848741
0.0850299
0.0851854
0.0853403
0.0854947
0.0856486
0.0858019
0.0859549
0.0861073
0.0862593
0.0864106
0.0865615
0.0867119
0.0868617
0.0870109
0.0871596
0.0873078
0.0874554
0.0876026
0.0877491
0.0878949
0.0880403
0.0881852
0.0883293
0.0884729
0.0886158
0.0887582
0.0889
0.089041
0.0891815
0.0893214
0.0894606
0.0895992
0.0897371
0.0898744
0.0900111
0.0901471
0.0902824
0.090417
0.0905509
0.0906841
0.0908167
0.0909484
0.0910796
0.0912099
0.0913396
0.0914686
0.0915968
0.0917242
0.091851
0.091977
0.0921022
0.0922266
0.0923503
0.0924732
0.0925953
0.0927166
0.0928372
0.0929569
0.0930757
0.0931939
0.0933112
0.0934276
0.0935432
0.093658
0.0937719
0.093885
0.0939972
0.0941086
0.0942191
0.0943287
0.0944374
0.0945452
0.0946521
0.0947581
0.0948633
0.0949675
0.0950708
0.0951732
0.0952746
0.0953751
0.0954746
0.0955732
0.0956708
0.0957675
0.0958632
0.0959579
0.0960516
0.0961444
0.0962361
0.0963268
0.0964165
0.0965053
0.096593
0.0966796
0.0967652
0.0968498
0.0969334
0.0970159
0.0970973
0.0971777
0.0972569
0.0973351
0.0974123
0.0974883
0.0975633
0.0976371
0.0977099
0.0977815
0.0978519
0.0979213
0.0979896
0.0980567
0.0981226
0.0981874
0.0982511
0.0983135
0.0983748
0.098435
0.0984939
0.0985517
0.0986083
0.0986636
0.0987178
0.0987707
0.0988225
0.098873
0.0989223
0.0989703
0.0990171
0.0990627
0.099107
0.09915
0.0991918
0.0992323
0.0992716
0.0993095
0.0993462
0.0993816
0.0994156
0.0994484
0.0994799
0.09951
0.0995388
0.0995663
0.0995925
0.0996173
0.0996408
0.0996629
0.0996837
0.0997031
0.0997212
0.0997379
0.0997532
0.0997671
0.0997796
0.0997908
0.0998005
0.0998089
0.0998158
0.0998213
0.0998255
0.0998281
0.0998294
0.0998292
0.0998276
0.0998246
0.0998201
0.0998141
0.0998067
0.0997979
0.0997875
0.0997757
0.0997624
0.0997477
0.0997314
0.0997137
0.0996945
0.0996738
0.0996515
0.0996278
0.0996026
0.0995758
0.0995475
0.0995177
0.0994864
0.0994535
0.0994191
0.0993832
0.0993457
0.0993067
0.0992661
0.099224
0.0991803
0.099135
0.0990882
0.0990398
0.0989899
0.0989383
0.0988852
0.0988305
0.0987742
0.0987163
0.0986569
0.0985958
0.0985331
0.0984689
0.098403
0.0983355
0.0982665
0.0981958
0.0981235
0.0980495
0.097974
0.0978968
0.097818
0.0977376
0.0976555
0.0975719
0.0974866
0.0973996
0.097311
0.0972208
0.097129
0.0970354
0.0969403
0.0968435
0.0967451
0.096645
0.0965433
0.09644
0.0963349
0.0962283
0.0961199
0.09601
0.0958984
0.0957851
0.0956702
0.0955537
0.0954354
0.0953156
0.095194
0.0950708
0.094946
0.0948195
0.0946914
0.0945616
0.0944302
0.0942971
0.0941624
0.094026
0.0938881
0.0937484
0.0936071
0.0934642
0.0933197
0.0931735
0.0930257
0.0928762
0.0927251
0.0925724
0.0924181
0.0922621
0.0921046
0.0919454
0.0917846
0.0916223
0.0914583
0.0912928
0.0911256
0.0909568
0.0907865
0.0906146
0.0904411
0.0902661
0.0900895
0.0899113
0.0897316
0.0895503
0.0893675
0.0891832
0.0889973
0.0888099
0.088621
0.0884306
0.0882387
0.0880453
0.0878505
0.0876542
0.0874564
0.0872571
0.0870564
0.0868543
0.0866507
0.0864457
0.0862393
0.0860315
0.0858223
0.0856118
0.0853999
0.0851866
0.084972
0.0847561
0.0845388
0.0843202
0.0841004
0.0838792
0.0836569
0.0834332
0.0832083
0.0829822
0.0827549
0.0825264
0.0822967
0.0820659
0.0818339
0.0816008
0.0813666
0.0811313
0.080895
0.0806575
0.080419
0.0801796
0.0799391
0.0796976
0.0794552
0.0792119
0.0789677
0.0787225
0.0784765
0.0782296
0.0779819
0.0777335
0.0774843
0.0772342
0.0769835
0.0767321
0.07648
0.0762273
0.0759739
0.07572
0.0754654
0.0752104
0.0749548
0.0746988
0.0744423
0.0741854
0.0739282
0.0736706
0.0734126
0.0731544
0.0728959
0.0726372
0.0723783
0.0721193
0.0718602
0.0716009
0.0713416
0.0710824
0.0708232
0.070564
0.0703051
0.0700462
0.0697875
0.069529
0.0692709
0.0690131
0.0687556
0.0684986
0.068242
0.0679859
0.0677303
0.0674754
0.0672211
0.0669675
0.0667146
0.0664624
0.0662111
0.0659607
0.0657112
0.0654627
0.0652153
0.0649689
0.0647236
0.0644796
0.0642368
0.0639952
0.0637551
0.0635162
0.0632789
0.0630431
0.0628089
0.0625763
0.0623454
0.0621162
0.0618888
0.0616633
0.0614397
0.061218
0.0609984
0.0607809
0.0605656
0.0603524
0.0601416
0.059933
0.0597269
0.0595233
0.0593221
0.0591236
0.0589277
0.0587345
0.0585441
0.0583566
0.0581719
0.0579902
0.0578115
0.057636
0.0574636
0.0572944
0.0571286
0.0569661
0.056807
0.0566514
0.0564994
0.056351
0.0562062
0.0560653
0.0559282
0.055795
0.0556658
0.0555406
0.0554195
0.0553025
0.0551899
0.0550815
0.0549776
0.0548781
0.0547831
0.0546928
0.0546071
0.0545262
0.0544501
0.0543789
0.0543127
0.0542515
0.0541955
0.0541447
0.0540993
0.0540591
0.0540245
0.0539954
0.0539719
0.0539541
0.0539421
0.053936
)
;

boundaryField
{
    INLET
    {
        type            cyclic;
    }
    OUTLET
    {
        type            cyclic;
    }
    CENTER
    {
        type            symmetryPlane;
    }
    WALL
    {
        type            fixedValue;
        value           uniform 1e-10;
    }
    frontAndBackPlanes
    {
        type            empty;
    }
}


// ************************************************************************* //
