/*--------------------------------*- C++ -*----------------------------------*\
| =========                 |                                                 |
| \\      /  F ield         | OpenFOAM: The Open Source CFD Toolbox           |
|  \\    /   O peration     | Version:  v1806                                 |
|   \\  /    A nd           | Web:      www.OpenFOAM.com                      |
|    \\/     M anipulation  |                                                 |
\*---------------------------------------------------------------------------*/
FoamFile
{
    version     2.0;
    format      ascii;
    class       volScalarField;
    location    0;
    object      Kj_DD_exp;
}
// * * * * * * * * * * * * * * * * * * * * * * * * * * * * * * * * * * * * * //

dimensions      [0 0 0 0 0 0 0];


internalField   nonuniform List<scalar>
1025
(
0.012329392
0.03703053
0.061832258
0.086734847
0.11173857
0.13684408
0.16205184
0.18736212
0.21277529
0.23829159
0.26391179
0.28963637
0.31546514
0.341399
0.36743979
0.39358778
0.41984354
0.44620624
0.47267599
0.49925338
0.5259385
0.55273181
0.57963175
0.60664123
0.63376059
0.66099027
0.68832668
0.71577141
0.74332731
0.77099407
0.79877483
0.82666622
0.85467115
0.88278874
0.91101961
0.93936354
0.9678203
0.99639289
1.0250843
1.0538912
1.0828133
1.1118538
1.1410122
1.1702886
1.1996827
1.2291973
1.2588265
1.2885668
1.318421
1.3483916
1.3784784
1.4086846
1.4390131
1.4694565
1.5000219
1.5307152
1.561533
1.5924722
1.6235354
1.6547176
1.6860266
1.7174622
1.7490244
1.7807128
1.812521
1.8444487
1.8765052
1.9086899
1.940996
1.973433
2.006001
2.0386996
2.0715286
2.1044939
2.1375893
2.1708176
2.2041936
2.2377049
2.2713516
2.3051335
2.3390503
2.3731048
2.4072967
2.441626
2.4761094
2.5107438
2.5455179
2.5804168
2.6154582
2.6506415
2.6859638
2.7214275
2.7570358
2.7928046
2.8287174
2.8647769
2.90098
2.9373263
2.9738218
3.0104814
3.0472865
3.0842401
3.1213451
3.1585978
3.1960012
3.2335553
3.2712565
3.3090927
3.3470606
3.3851778
3.4234499
3.4618738
3.5004296
3.5391426
3.5780327
3.6170794
3.6562827
3.6956421
3.7351603
3.7748372
3.814698
3.8547199
3.8949027
3.935246
3.9757528
4.0164225
4.057252
4.0982442
4.1394042
4.1807
4.2221278
4.2637226
4.3054871
4.3474179
4.3895149
4.4317808
4.474215
4.5167877
4.5595311
4.602445
4.645529
4.6887858
4.7322179
4.775822
4.8195648
4.863482
4.907573
4.9518408
4.9962877
5.0409107
5.0857092
5.1306891
5.1758496
5.2211908
5.2667121
5.3124134
5.3582971
5.4043632
5.4506576
5.4971364
5.5437996
5.5906526
5.6376919
5.6849145
5.732326
5.7799766
5.8278639
5.875942
5.9242139
5.9726646
6.0213055
6.0702305
6.1193478
6.1686289
6.2181013
6.2677939
6.3176776
6.3678078
6.4181567
6.4686962
6.5194253
6.570344
6.6214208
6.6727147
6.7241968
6.7758949
6.8277462
6.8797847
6.9320095
6.9843839
7.0370002
7.0898015
7.1427484
7.1959078
7.2492786
7.3028613
7.3566547
7.4106587
7.4648732
7.5193252
7.573959
7.6288016
7.6838048
7.738967
7.7943056
7.8498822
7.9056691
7.9616378
8.0178069
8.0742001
8.1307812
8.1875938
8.2446525
8.3019764
8.3595932
8.4173688
8.4753645
8.533635
8.5921709
8.650917
8.7099187
8.7691586
8.828626
8.8883864
8.9483443
9.0085854
9.0690623
9.1297952
9.1907805
9.2519764
9.3133649
9.3749877
9.4369091
9.4990588
9.5614526
9.6240463
9.6868658
9.7499828
9.8133128
9.8768665
9.9407249
10.004817
10.069167
10.133753
10.198583
10.263607
10.328901
10.394476
10.460332
10.526444
10.592784
10.659366
10.726147
10.793141
10.860481
10.928045
10.99586
11.063926
11.132212
11.200717
11.269484
11.338538
11.40791
11.477572
11.547464
11.617661
11.688222
11.759068
11.830203
11.901575
11.973246
12.045184
12.117404
12.189795
12.26245
12.335395
12.408687
12.482259
12.556207
12.630361
12.704756
12.779508
12.854545
12.929913
13.005537
13.081519
13.15784
13.23444
13.311439
13.388756
13.466311
13.544061
13.622026
13.70023
13.778685
13.857349
13.936332
14.015584
14.09511
14.174884
14.254859
14.335126
14.415659
14.496505
14.577569
14.658873
14.74058
14.822525
14.904683
14.987147
15.070016
15.153191
15.236771
15.320733
15.405025
15.489697
15.574568
15.659844
15.745446
15.831456
15.917928
16.004615
16.091735
16.179179
16.267003
16.355088
16.443607
16.532447
16.621544
16.71089
16.800584
16.890712
16.981238
17.072142
17.163262
17.254681
17.346368
17.438488
17.531003
17.624011
17.717355
17.811059
17.90519
17.99961
18.094318
18.189452
18.285109
18.381156
18.477631
18.574411
18.671458
18.768881
18.866655
18.964803
19.063286
19.162141
19.261392
19.360975
19.460886
19.561126
19.661757
19.762779
19.864167
19.965943
20.068108
20.170616
20.273467
20.376658
20.480258
20.584239
20.688558
20.793281
20.898407
21.003889
21.109749
21.216056
21.322763
21.429868
21.537394
21.645317
21.753635
21.862372
21.971526
22.081044
22.190903
22.301175
22.411883
22.523003
22.634533
22.746472
22.85882
22.971598
23.084751
23.198331
23.312396
23.426945
23.541976
23.657433
23.773254
23.88946
24.006111
24.123182
24.240695
24.358648
24.47704
24.595808
24.715013
24.834654
24.954752
25.075241
25.196095
25.317404
25.439164
25.561307
25.683854
25.80678
25.930082
26.053829
26.178042
26.302721
26.427936
26.553614
26.679754
26.806452
26.933587
27.061202
27.189297
27.317848
27.446819
27.576266
27.706245
27.836696
27.967642
28.099162
28.231257
28.363821
28.496874
28.630415
28.764356
28.898805
29.033825
29.16935
29.305356
29.441864
29.578894
29.716401
29.854406
29.99293
30.131853
30.271291
30.411243
30.551707
30.69278
30.83446
30.976771
31.11959
31.262914
31.406764
31.551161
31.69608
31.841522
31.987483
32.133962
32.281002
32.428579
32.576669
32.725405
32.874673
33.024494
33.174866
33.325649
33.47698
33.628877
33.781319
33.934302
34.087826
34.241787
34.396182
34.551133
34.706638
34.862694
35.019322
35.176499
35.334374
35.492837
35.651865
35.81157
35.971857
36.132726
36.294174
36.456201
36.618922
36.782238
36.946149
37.11063
37.275701
37.44136
37.607605
37.774434
37.941867
38.109899
38.278511
38.44774
38.617564
38.787981
38.95901
39.130488
39.302572
39.475241
39.648533
39.822279
39.996455
40.171247
40.346824
40.523012
40.699831
40.877279
41.055332
41.234009
41.413329
41.593267
41.773639
41.954665
42.136324
42.318593
42.50151
42.685072
42.869258
43.054085
43.239571
43.425694
43.612451
43.799859
43.987917
44.176643
44.366012
44.555813
44.746293
44.937429
45.12922
45.321661
45.514771
45.708548
45.902988
46.09811
46.29412
46.491018
46.688844
46.887343
47.086514
47.286393
47.486879
47.688088
47.890016
48.092661
48.296019
48.499641
48.703971
48.909199
49.115129
49.321564
49.52896
49.737243
49.946218
50.155881
50.366231
50.577071
50.788783
51.001647
51.215278
51.429582
51.64475
51.860777
52.077468
52.294525
52.512241
52.730913
52.950733
53.171395
53.392704
53.61466
53.837446
54.060742
54.284674
54.509237
54.73429
54.960155
55.186827
55.413969
55.641724
55.87009
56.099434
56.329568
56.560302
56.791819
57.024114
57.257186
57.491393
57.726185
57.961744
58.19825
58.435515
58.673536
58.911925
59.151063
59.391126
59.631929
59.873466
60.115736
60.358735
60.602639
60.847265
61.092607
61.338842
61.585789
61.833439
62.082152
62.331563
62.581668
62.833083
63.085364
63.33833
63.592429
63.847562
64.103547
64.360203
64.617702
64.875569
65.133617
65.392493
65.652365
65.913056
66.174879
66.437511
66.701127
66.965545
67.23076
67.496253
67.762535
68.029772
68.297786
68.566574
68.836668
69.107528
69.379323
69.652046
69.925521
70.199354
70.473531
70.748274
71.023914
71.300449
71.577871
71.855586
72.13401
72.413303
72.693463
72.974482
73.256357
73.538914
73.822317
74.106725
74.391967
74.678038
74.964932
75.25199
75.539859
75.828696
76.118332
76.408085
76.698787
76.989579
77.28045
77.572246
77.865667
78.159842
78.454208
78.749476
79.045479
79.342213
79.639829
79.938483
80.238765
80.539757
80.841611
81.144323
81.448668
81.753861
82.059895
82.366923
82.674781
82.983465
83.293787
83.604924
83.917026
84.230085
84.544025
84.859098
85.175111
85.492144
85.809685
86.127725
86.446828
86.767016
87.088221
87.410317
87.733298
88.056783
88.380949
88.705691
89.031667
89.358587
89.686347
90.01494
90.344212
90.67495
91.006096
91.338046
91.670893
92.00416
92.338043
92.673261
93.009667
93.346404
93.684613
94.024037
94.364635
94.706219
95.048486
95.39206
95.735777
96.079881
96.425422
96.77144
97.118419
97.466323
97.81467
98.16383
98.514011
98.86523
99.21746
99.570588
99.924732
100.2795
100.6354
100.99151
101.34886
101.70731
102.06713
102.42818
102.78951
103.15206
103.51514
103.87887
104.24283
104.60812
104.9736
105.3404
105.7082
106.07745
106.4467
106.81593
107.18643
107.5573
107.92928
108.30205
108.67501
109.0489
109.42431
109.8011
110.17927
110.55755
110.93669
111.31732
111.69834
112.08018
112.46219
112.845
113.22926
113.61452
114.00089
114.3885
114.7772
115.16699
115.55764
115.94919
116.34162
116.73578
117.13135
117.52864
117.92765
118.32658
118.72647
119.12705
119.52819
119.93012
120.33297
120.73704
121.14141
121.54646
121.9515
122.35699
122.76241
123.16899
123.57513
123.98094
124.38648
124.79184
125.19797
125.60495
126.01233
126.41945
126.82683
127.23478
127.64284
128.05132
128.46044
128.86996
129.28019
129.69172
130.10452
130.51825
130.93359
131.34935
131.76454
132.17975
132.59482
133.01095
133.42714
133.84477
134.26357
134.68197
135.10112
135.52167
135.94201
136.36279
136.78451
137.20692
137.6289
138.05282
138.47654
138.90115
139.32741
139.75407
140.18101
140.60833
141.0361
141.4642
141.89261
142.32131
142.75028
143.1797
143.60916
144.03882
144.46877
144.89899
145.32976
145.76107
146.19258
146.62428
147.05624
147.48875
147.92138
148.35421
148.78721
149.22002
149.65295
150.08598
150.51908
150.95224
151.38551
151.81879
152.25214
152.68554
153.11895
153.55201
153.98494
154.41818
154.85142
155.28466
155.71813
156.15144
156.58465
157.01774
157.4506
157.88336
158.31591
158.74815
159.1802
159.61206
160.04367
160.47494
160.90583
161.33639
161.76668
162.19659
162.626
163.05505
163.4837
163.91184
164.33952
164.76671
165.1933
165.61933
166.04484
166.46929
166.89307
167.31669
167.74004
168.16271
168.58467
169.00633
169.42769
169.84869
170.26891
170.68824
171.10664
171.52415
171.94072
172.35632
172.77091
173.18445
173.59698
174.00844
174.41873
174.82781
175.23577
175.6425
176.0479
176.45206
176.85486
177.25626
177.65634
178.05501
178.45214
178.84775
179.24187
179.63438
180.02523
180.41445
180.8014
181.18654
181.57048
181.95322
182.33408
182.71305
183.09009
183.46509
183.83804
184.20891
184.57701
184.94291
185.3066
185.6674
186.02582
186.3825
186.73673
187.08917
187.43975
187.78766
188.13295
188.4756
188.81546
189.15183
189.48537
189.81664
190.1449
190.47017
190.79235
191.11131
191.42707
191.73952
192.0486
192.35501
192.65866
192.95875
193.25521
193.54869
193.83842
194.12356
194.40479
194.68207
194.95527
195.22432
195.48916
195.74971
196.00585
196.25829
196.50622
196.74952
196.98809
197.22185
197.45071
197.67458
197.89338
198.10698
198.31529
198.51822
198.71487
198.90593
199.09129
199.27002
199.44286
199.60967
199.77035
199.92479
200.07287
200.21448
200.35037
200.47954
200.60187
200.71723
200.82639
200.92831
201.02286
201.10992
201.18935
201.26098
201.32468
201.3803
201.42769
201.46575
201.49431
201.51321
201.52228
)
;

boundaryField
{
INLET
{
    type            cyclic;
}
OUTLET
{
    type            cyclic;
}
WALL
{
    type            fixedValue;
    value           uniform 0;
}
CENTER
{
    type            symmetryPlane;
}
frontAndBackPlanes
{
    type            empty;
}
}


// ************************************************************************* //

