/*--------------------------------*- C++ -*----------------------------------*\
| =========                 |                                                 |
| \\      /  F ield         | OpenFOAM: The Open Source CFD Toolbox           |
|  \\    /   O peration     | Version:  v1806                                 |
|   \\  /    A nd           | Web:      www.OpenFOAM.com                      |
|    \\/     M anipulation  |                                                 |
\*---------------------------------------------------------------------------*/
FoamFile
{
    version     2.0;
    format      ascii;
    class       volScalarField;
    location    0;
    object      Kj_DD_imp1;
}
// * * * * * * * * * * * * * * * * * * * * * * * * * * * * * * * * * * * * * //

dimensions      [0 0 0 0 0 0 0];


internalField   nonuniform List<scalar>
1025
(
0.012244522
0.036775412
0.061405983
0.086136507
0.11096725
0.13589887
0.16093236
0.18606735
0.21130431
0.23664338
0.26208532
0.2876307
0.31328041
0.33903407
0.36489211
0.39085468
0.41692232
0.44309572
0.46937498
0.49576044
0.52225234
0.54885098
0.57555728
0.60237166
0.62929718
0.65633145
0.68347065
0.71071636
0.73807137
0.76553877
0.79311816
0.8208063
0.84860985
0.87653178
0.90456856
0.93271984
0.96098128
0.98935598
1.0178512
1.0464593
1.0751798
1.1040159
1.1329725
1.1620438
1.1912237
1.22052
1.2499325
1.2794579
1.309099
1.3388588
1.368737
1.398737
1.4288617
1.4591042
1.4894635
1.5199445
1.5505435
1.5812572
1.6120884
1.6430397
1.674111
1.705302
1.7366037
1.7680246
1.7995673
1.8312316
1.8630155
1.894917
1.9269391
1.9590813
1.9913434
2.0237145
2.0562048
2.0888311
2.1215758
2.1544419
2.1874319
2.2205452
2.2537794
2.2871321
2.3206152
2.3542186
2.387942
2.4217852
2.4557506
2.4898347
2.524026
2.5583384
2.5927742
2.6273331
2.6620107
2.6968054
2.7317173
2.7667467
2.8018934
2.83716
2.8725594
2.9080744
2.9437106
2.9794822
3.0153888
3.0514333
3.0876
3.1238835
3.16028
3.1967858
3.2333997
3.2701299
3.3069732
3.3439465
3.3810343
3.4182333
3.4555455
3.4929733
3.5305133
3.5681673
3.6059329
3.6438009
3.6817676
3.7198586
3.7580522
3.7963508
3.8347539
3.8732857
3.9119483
3.9507417
3.9896629
4.0286873
4.0678202
4.1070578
4.1463868
4.1857954
4.2252859
4.2648659
4.3045364
4.3442697
4.3840651
4.423924
4.463875
4.503917
4.5440495
4.5842739
4.6245924
4.6649992
4.7054722
4.7459524
4.7864549
4.8270349
4.8677285
4.9084976
4.9493413
4.9902636
5.0312642
5.0723413
5.1134942
5.1547587
5.1960995
5.2374627
5.2788063
5.3201511
5.3615701
5.4030525
5.4445951
5.4861946
5.5278147
5.5694562
5.6111561
5.6529156
5.6947361
5.7366459
5.7786553
5.8207121
5.8626658
5.9045515
5.9464566
5.9884257
6.0304331
6.072477
6.1145804
6.1567178
6.1988885
6.2411386
6.2834432
6.325754
6.3680372
6.4102636
6.4523409
6.4943375
6.536345
6.5783857
6.6204325
6.6624869
6.7045716
6.7466857
6.7888266
6.8309926
6.873184
6.9153992
6.9575553
6.9995247
7.0412267
7.0828752
7.1245532
7.1662605
7.2079197
7.2495832
7.2912703
7.3329605
7.3747275
7.4165154
7.4583045
7.500066
7.5415275
7.582656
7.6236602
7.664653
7.7056326
7.7466348
7.7876392
7.828646
7.8696746
7.9106845
7.9516938
7.9927201
8.0337886
8.0746113
8.1149401
8.1550185
8.1951045
8.2351957
8.2752728
8.3152754
8.3552992
8.3953252
8.4352722
8.4752022
8.5151948
8.5551833
8.5948471
8.6339117
8.6726151
8.7113114
8.7499999
8.7886957
8.8273815
8.8660582
8.904741
8.9434093
8.982078
9.0207339
9.0593656
9.0976104
9.1352106
9.1724748
9.209755
9.2470345
9.2842951
9.3215508
9.3587348
9.3959145
9.4330892
9.4702691
9.5075204
9.5445562
9.5808975
9.6166921
9.6523617
9.6880388
9.7237065
9.7594421
9.7951807
9.8309215
9.8665953
9.9022554
9.9379149
9.9734474
10.008392
10.042585
10.076484
10.110386
10.144287
10.178198
10.212122
10.246111
10.280161
10.314219
10.348286
10.382277
10.415715
10.448293
10.480486
10.512689
10.5449
10.577198
10.6095
10.641808
10.674137
10.706471
10.738816
10.771048
10.802662
10.833436
10.863859
10.894299
10.924817
10.955414
10.986027
11.016658
11.047311
11.077975
11.10865
11.139066
11.16865
11.197531
11.226275
11.255042
11.28376
11.312446
11.341152
11.369875
11.398615
11.427375
11.45612
11.484334
11.511678
11.538599
11.565551
11.592525
11.619522
11.646614
11.673792
11.700996
11.728169
11.755359
11.782156
11.808079
11.83347
11.858804
11.884173
11.909574
11.935061
11.96058
11.986129
12.011707
12.037313
12.06256
12.087033
12.110971
12.134848
12.158696
12.182581
12.206503
12.230454
12.254379
12.278338
12.302326
12.325891
12.348571
12.370829
12.393121
12.415452
12.437759
12.460036
12.48229
12.504582
12.526911
12.549105
12.570723
12.591683
12.612415
12.633128
12.65388
12.674671
12.695496
12.716352
12.737248
12.758237
12.778902
12.798784
12.818293
12.837837
12.857427
12.877056
12.896722
12.916422
12.936157
12.955932
12.97543
12.994262
13.012673
13.03105
13.049465
13.067918
13.086463
13.105046
13.123665
13.142326
13.16073
13.178502
13.195885
13.213241
13.230634
13.248068
13.265543
13.283055
13.300604
13.318185
13.335457
13.352093
13.368488
13.384919
13.401388
13.417898
13.434445
13.45103
13.467653
13.48424
13.500413
13.516117
13.531624
13.547172
13.562804
13.578475
13.594236
13.61003
13.625865
13.641496
13.656577
13.671399
13.68625
13.701135
13.716013
13.730931
13.745934
13.760976
13.775809
13.790202
13.804284
13.81833
13.832415
13.846536
13.860698
13.874897
13.889128
13.903235
13.916957
13.930415
13.943823
13.957229
13.970631
13.984065
13.99753
14.011034
14.024404
14.037404
14.050144
14.062858
14.075651
14.088524
14.101434
14.11438
14.12736
14.140153
14.152553
14.164774
14.177029
14.189319
14.201602
14.213922
14.226277
14.238583
14.25064
14.262416
14.27411
14.285839
14.2976
14.309397
14.321228
14.333095
14.344815
14.356201
14.367433
14.378697
14.389997
14.401291
14.412617
14.423973
14.435206
14.446147
14.456905
14.467642
14.478372
14.489138
14.499934
14.51076
14.521572
14.532168
14.542617
14.553072
14.563562
14.574082
14.584631
14.595253
14.60582
14.61615
14.626315
14.636453
14.646618
14.656814
14.667043
14.677342
14.687572
14.697605
14.707505
14.717361
14.727208
14.737047
14.74692
14.756857
14.766698
14.776329
14.785834
14.795367
14.804931
14.814565
14.824269
14.83395
14.843494
14.852894
14.862262
14.871657
14.881084
14.890542
14.900027
14.909437
14.918666
14.927817
14.936997
14.946205
14.955443
14.964713
14.97391
14.982974
14.991972
15.000965
15.009986
15.019038
15.028118
15.037146
15.046073
15.054927
15.063791
15.072721
15.081679
15.090668
15.099662
15.108558
15.117338
15.126066
15.134821
15.143597
15.152401
15.161211
15.169903
15.178491
15.187057
15.195642
15.204258
15.212909
15.221544
15.230094
15.238565
15.247031
15.255519
15.264032
15.272535
15.281013
15.289399
15.297727
15.306058
15.314449
15.32291
15.331397
15.339871
15.348241
15.35658
15.364944
15.373336
15.381761
15.390139
15.398443
15.406686
15.414925
15.42315
15.431405
15.439683
15.447924
15.456072
15.464184
15.472324
15.480495
15.488691
15.496873
15.504984
15.513046
15.521124
15.529188
15.53724
15.545253
15.553209
15.561109
15.568965
15.576847
15.584757
15.592715
15.600669
15.608568
15.616451
15.624314
15.632205
15.64012
15.647999
15.655803
15.663596
15.671417
15.679223
15.687049
15.694885
15.702692
15.710484
15.718304
15.72615
15.734007
15.741834
15.749609
15.757371
15.765158
15.772974
15.780793
15.788576
15.796313
15.804049
15.811807
15.819628
15.827449
15.83523
15.842978
15.850735
15.858518
15.866321
15.874069
15.881761
15.889438
15.897141
15.904867
15.912602
15.920305
15.927929
15.935557
15.943201
15.950873
15.958543
15.966163
15.973764
15.981384
15.989026
15.996676
16.004346
16.012025
16.019751
16.027504
16.035278
16.043035
16.050747
16.058451
16.06618
16.073893
16.081557
16.089178
16.096737
16.104311
16.111916
16.119574
16.127195
16.13479
16.142395
16.150025
16.157664
16.165279
16.172867
16.180458
16.188116
16.195787
16.203439
16.211012
16.218541
16.226048
16.233567
16.241066
16.248533
16.255996
16.263484
16.270991
16.278431
16.285833
16.293236
16.300667
16.30806
16.315427
16.322768
16.330115
16.337485
16.344857
16.352204
16.359531
16.366868
16.374228
16.381586
16.388911
16.396224
16.403554
16.410906
16.418247
16.425552
16.432857
16.440186
16.447522
16.454839
16.462134
16.469436
16.476708
16.48393
16.491121
16.498299
16.505498
16.512713
16.519912
16.527085
16.53426
16.541511
16.548815
16.556145
16.563517
16.570907
16.578312
16.585701
16.593066
16.600434
16.60783
16.615224
16.622587
16.62989
16.637215
16.644547
16.651859
16.659159
16.666469
16.673795
16.681173
16.688527
16.695884
16.703263
16.710639
16.717932
16.725226
16.732545
16.739868
16.747166
16.754398
16.761647
16.768965
16.776267
16.783557
16.790863
16.798179
16.805479
16.812708
16.819953
16.827208
16.834387
16.841492
16.848546
16.855612
16.862666
16.869708
16.876759
16.883819
16.890868
16.897902
16.904946
16.911999
16.919036
16.926065
16.933107
16.940155
16.94718
16.954133
16.961105
16.968078
16.97503
16.981978
16.988942
16.995906
17.002781
17.009654
17.016542
17.023425
17.030293
17.037168
17.044053
17.050928
17.057864
17.064812
17.071758
17.078686
17.085613
17.092626
17.099699
17.106755
17.113834
17.12093
17.127921
17.134881
17.141878
17.148886
17.155914
17.163029
17.170181
17.177302
17.184413
17.191538
17.198632
17.205718
17.212839
17.219953
17.227035
17.23413
17.241239
17.248339
17.255432
17.262516
17.26959
17.276657
17.283658
17.290672
17.297677
17.304675
17.311582
17.318502
17.325414
17.332294
17.339105
17.345929
17.352742
17.359484
17.366237
17.37296
17.379674
17.386398
17.393092
17.399777
17.406473
17.413159
17.419856
17.426564
17.433241
17.439909
17.446588
17.453237
17.459805
17.466405
17.472973
17.479604
17.486225
17.492836
17.499458
17.506089
17.512691
17.519283
17.525905
17.532518
17.539081
17.545633
17.552099
17.558455
17.56482
17.571175
17.577499
17.583831
17.590153
17.596546
17.602949
17.60936
17.61576
17.622256
17.628827
17.635388
17.64196
17.648503
17.655037
17.661581
17.668117
17.674643
17.68116
17.687668
17.694166
17.700749
17.707303
17.713868
17.720445
17.727129
17.733786
17.740415
17.747056
17.75369
17.760296
17.766895
17.773466
17.78003
17.786607
17.793177
17.799614
17.806024
17.812407
17.818782
17.825148
17.831507
17.837968
17.844402
17.85085
17.857158
17.863419
17.869653
17.876016
17.882371
17.888582
17.894767
17.901065
17.907497
17.914046
17.920571
17.926948
17.933299
17.939606
17.945887
17.952163
17.958434
17.964659
17.970688
17.97671
17.982706
17.988832
17.994913
18.00095
18.006981
18.012828
18.018467
18.024061
18.029792
18.035497
18.04099
18.046438
18.051858
18.057251
18.06258
18.067862
18.073274
18.078622
18.083926
18.089185
18.0944
18.099533
18.104603
18.109517
18.114403
18.119207
18.12389
18.128602
18.133347
18.137969
18.142506
18.147001
18.151511
18.156016
18.160518
18.164878
18.169236
18.173492
18.177728
18.181985
18.186202
18.190276
18.194311
18.198267
18.202056
18.205807
18.209372
18.212943
18.216389
18.219605
18.222827
18.225945
18.228988
18.231816
18.234565
18.237216
18.239723
18.242086
18.244417
18.246647
18.248831
18.250804
18.252656
18.254314
18.255775
18.257189
18.258537
18.259821
18.261038
18.262062
18.262977
18.263625
18.264138
18.264569
18.264688
)
;

boundaryField
{
INLET
{
    type            cyclic;
}
OUTLET
{
    type            cyclic;
}
WALL
{
    type            fixedValue;
    value           uniform 0;
}
CENTER
{
    type            symmetryPlane;
}
frontAndBackPlanes
{
    type            empty;
}
}


// ************************************************************************* //

