/*--------------------------------*- C++ -*----------------------------------*\
| =========                 |                                                 |
| \\      /  F ield         | OpenFOAM: The Open Source CFD Toolbox           |
|  \\    /   O peration     | Version:  v1806                                 |
|   \\  /    A nd           | Web:      www.OpenFOAM.com                      |
|    \\/     M anipulation  |                                                 |
\*---------------------------------------------------------------------------*/
FoamFile
{
    version     2.0;
    format      ascii;
    class       volScalarField;
    location    0;
    object      Kj_exp;
}
// * * * * * * * * * * * * * * * * * * * * * * * * * * * * * * * * * * * * * //

dimensions      [0 0 0 0 0 0 0];


internalField   nonuniform List<scalar>
1025
(
777.45076
2335.023
3898.938
5469.2131
7045.8651
8628.9357
10218.454
11814.437
13416.907
15025.881
16641.406
18263.513
19892.19
21527.493
23169.54
24818.346
26473.948
28136.292
29805.388
31481.27
33163.945
34853.443
36549.664
38252.793
39962.85
41679.864
43403.608
45134.182
46871.766
48616.341
50368.104
52126.843
53892.741
55665.743
57445.889
59233.163
61027.553
62829.246
64638.429
66454.897
68278.635
70109.829
71948.465
73794.535
75648.03
77509.126
79377.446
81252.77
83135.273
85025.123
86922.297
88827.003
90739.413
92659.077
94586.427
96521.844
98465.114
100416.04
102374.78
104341.03
106315.27
108297.5
110287.7
112285.87
114291.59
116304.85
118326.22
120355.69
122392.8
124438.17
126491.8
128553.67
130623.75
132702.44
134789.32
136884.59
138989.17
141102.28
143223.93
145354.11
147492.79
149640.15
151796.18
153960.88
156135.28
158319.22
160511.96
162712.57
164922.16
167140.7
169368.01
171604.24
173849.57
176105.04
178369.58
180643.37
182926.22
185218.1
187519.38
189831.02
192151.83
194482
196821.71
199170.75
201529.29
203897.32
206274.63
208660.46
211054.59
213458.13
215871.45
218294.33
220725.53
223166.65
225618.93
228081.08
230553.12
233034.99
235526.88
238028.77
240542.26
243065.91
245599.71
248143.62
250697.84
253262.34
255836.92
258421.75
261017.16
263621.14
266233.44
268856.27
271489.8
274133.82
276788.32
279453.47
282129.23
284813.72
287508.98
290214.98
292931.72
295659.35
298398.03
301147.57
303905.84
306675.12
309455.35
312246.73
315049.41
317863.18
320688.03
323524.31
326371.99
329231.05
332101.48
334983.25
337876.53
340781.3
343700.47
346631.27
349573.7
352528.1
355494.24
358471.94
361461.55
364466.24
367485.86
370517.5
373561.37
376616.51
379683.65
382768.69
385865.87
388973.37
392092.94
395226.39
398371.89
401532.94
404707.77
407894.62
411093.44
414304.2
417524.94
420759.36
424005.65
427265.56
430535.14
433816.51
437109.63
440412.19
443730
447059.47
450398.13
453750.19
457115.58
460494.32
463886.36
467291.67
470710.26
474143.82
477588.85
481047.04
484515.36
487993.71
491483.18
494987.66
498505.39
502034.59
505576.43
509132.4
512700.22
516282.63
519880.57
523495.22
527128.35
530771.49
534428.51
538102.85
541793.93
545498.26
549218.71
552954.19
556704.01
560472.3
564253.05
568051.65
571865.13
575694.74
579540.28
583399.08
587270.04
591155.77
595060.33
598979.29
602913.64
606860.58
610821.78
614801.73
618795.11
622802.59
626829.29
630870.76
634928.45
639001
643088.96
647189.17
651306.4
655441.32
659594.03
663762.8
667946.01
672144.42
676355.44
680579.83
684826.08
689086.42
693362.65
697654.62
701960.5
706280.21
710616.43
714970.79
719345.14
723737.81
728144.96
732571.37
737020.69
741487.98
745973.57
750474.03
754993.38
759529.54
764083.48
768648.25
773229.64
777829.25
782450.85
787090.06
791752.93
796428.84
801119.95
805833.6
810565.15
815317.6
820086.22
824877.39
829689.92
834520.12
839375.38
844250.73
849141.09
854043.8
858960.02
863891.25
868838.4
873798.7
878779.07
883776.47
888791.07
893821.41
898864.37
903925.69
909003.87
914101.73
919213.35
924340.1
929492.33
934659.52
939840.08
945039.99
950265.43
955510.17
960780.5
966074.87
971390.02
976729.17
982080.83
987458.03
992855.84
998279.33
1003732
1009198.2
1014691.7
1020205.6
1025743.5
1031297.9
1036879.6
1042481.5
1048099.7
1053733.5
1059389.4
1065072.5
1070780.8
1076512.9
1082258.6
1088023.2
1093804.7
1099613.5
1105447.2
1111312
1117197.9
1123106.6
1129042.2
1134996
1140968
1146966.8
1152998.6
1159055
1165138.4
1171241.1
1177360.5
1183503.7
1189669
1195857.9
1202067.9
1208301.4
1214559.8
1220839.1
1227139.2
1233460
1239805.5
1246175.6
1252568.8
1258986.5
1265428.6
1271892.4
1278377.9
1284884.8
1291417.4
1297974.2
1304552.2
1311155.6
1317784.5
1324435.9
1331111.1
1337814.5
1344543
1351296.7
1358077
1364882.2
1371712.4
1378569
1385451.9
1392357.7
1399285.1
1406238.5
1413219.3
1420226.2
1427258.9
1434317.4
1441401.7
1448513.1
1455648.2
1462810.2
1470002.7
1477225.8
1484479.3
1491759.6
1499062.9
1506390.5
1513746.1
1521128.2
1528538.2
1535975.9
1543441.4
1550930.5
1558447.1
1565991.3
1573564.3
1581161.9
1588782.6
1596431.9
1604109.7
1611811.7
1619539.1
1627290.3
1635065.4
1642868.4
1650700.9
1658562.8
1666458.4
1674383.2
1682337.2
1690326.4
1698343
1706390.1
1714467.3
1722573.3
1730705.8
1738868.3
1747064.3
1755290.1
1763547.1
1771840.4
1780169.9
1788528.9
1796918.8
1805339.4
1813785.3
1822263.2
1830777.2
1839322.9
1847899
1856506.7
1865147.4
1873818.2
1882520.3
1891255.1
1900015.2
1908807.7
1917632.6
1926489.8
1935385.3
1944319.3
1953292.9
1962298.6
1971336.1
1980406.9
1989512
1998650.2
2007821.2
2017025.1
2026261.6
2035533.4
2044839.1
2054177.2
2063556
2072968.4
2082415.6
2091897.5
2101405.4
2110947.8
2120526
2130138.4
2139785.1
2149465.8
2159174
2168909.7
2178680.4
2188486
2198326.4
2208202.8
2218113.9
2228069
2238061.1
2248088.9
2258159.4
2268266.6
2278410.4
2288590.8
2298807.6
2309068.3
2319366.5
2329702.2
2340073.8
2350482.7
2360928.6
2371411.4
2381931.1
2392488.8
2403084.4
2413716.5
2424387.5
2435096.1
2445842
2456626.6
2467439.4
2478290.5
2489178.4
2500105.6
2511061.5
2522044.4
2533066.2
2544137.5
2555247.3
2566397
2577586.3
2588813.7
2600080.5
2611387.8
2622734.1
2634107.7
2645522.7
2656977.5
2668470.7
2680004.9
2691579.7
2703193.9
2714848.5
2726544.6
2738280.9
2750057.2
2761874.5
2773732.8
2785633.2
2797574.3
2809542.5
2821553.5
2833605.9
2845699.6
2857834.3
2870011.2
2882230.1
2894490.9
2906794.6
2919154.3
2931570.1
2944044.3
2956561.1
2969120.1
2981723.8
2994365.8
3007053.4
3019786.3
3032564.4
3045387.5
3058227.2
3071111.6
3084052.6
3097037.9
3110055
3123132.7
3136266.3
3149443.6
3162664.3
3175928.2
3189223.1
3202573
3215995.5
3229466.3
3242979.7
3256547.4
3270169.4
3283833.2
3297520.1
3311248.5
3325037.3
3338898.4
3352812.6
3366767.6
3380763.4
3394811.6
3408891.9
3423012.3
3437172.5
3451363.6
3465605.9
3479899.1
3494221.9
3508583.4
3522983.4
3537445.1
3551956.6
3566505.9
3581104.6
3595752.4
3610449.1
3625217.4
3640022.6
3654876.2
3669789.5
3684750.7
3699759.4
3714791.5
3729870.8
3745008.3
3760192.5
3775423.1
3790699.8
3806022.5
3821402.3
3836827.6
3852298.1
3867824.9
3883396.5
3899012.5
3914695.5
3930422.6
3946193.4
3962046.8
3977954.8
3993906
4009928.6
4026016.5
4042158
4058341.9
4074579
4090839.2
4107110.8
4123434.7
4139821.4
4156259.7
4172769.4
4189330.1
4205952.9
4222626.2
4239349.7
4256090.9
4272881.7
4289732.8
4306632.9
4323581.8
4340613
4357692.6
4374831
4392028.1
4409272.5
4426539.5
4443828.2
4461152.6
4478533.5
4495970.9
4513464.2
4530976
4548532.5
4566143.8
4583809.8
4601529.9
4619304
4637121.1
4654991.6
4672925.4
4690911.8
4708950.5
4727041.1
4745142
4763294.1
4781507.2
4799770.7
4818041.6
4836372.3
4854708.7
4873050
4891449.7
4909951.9
4928501.6
4947063.3
4965682
4984346.9
5003058
5021824.7
5040656.8
5059591.6
5078571.2
5097605.1
5116693.1
5135884.1
5155128.5
5174426.1
5193786.2
5213198.8
5232663.3
5252231.2
5271850.5
5291530.6
5311271.1
5331067.1
5350934.6
5370861.3
5390852.3
5410875.4
5430930
5451051.6
5471241.6
5491495.7
5511806
5532172.1
5552570
5573010.8
5593488
5614043
5634657.5
5655325
5676045
5696807.8
5717663
5738544
5759475.6
5780463.8
5801478.6
5822532.1
5843669.9
5864882.5
5886116
5907442.4
5928845.4
5950322.3
5971861.5
5993443.7
6015108.4
6036782
6058480.1
6080268.7
6102087.5
6123966.9
6145904.5
6167870.2
6189887
6211968.3
6234115
6256325.4
6278592.6
6300923.7
6323294.5
6345736.2
6368191.3
6390724.5
6413327.4
6436016.6
6458783
6481567.2
6504428.2
6527322.8
6550258.6
6573208.9
6596242.4
6619288.6
6642417.5
6665610.3
6688894
6712177.6
6735460
6758822.7
6782208.4
6805664
6829170
6852687.6
6876263.9
6899935.8
6923694.9
6947540.9
6971393.9
6995301.1
7019302.5
7043328.3
7067406.4
7091494.3
7115632.9
7139863.5
7164156.7
7188519.9
7212961
7237471.3
7262050.3
7286683.5
7311373.1
7336118.7
7360972.9
7385916.2
7410968.1
7436128.4
7461283.5
7486499.1
7511758.5
7537053
7562397.7
7587800
7613279.3
7638777.6
7664318.7
7689859.1
7715427.6
7740992.5
7766629.7
7792239.9
7817829
7843400.9
7868961.6
7894570.7
7920233.5
7945921.7
7971593.1
7997281.1
8023005.1
8048735.8
8074493.5
8100291.4
8126114.1
8151982.2
8177931.4
8203961.5
8230049.7
8256239.9
8282456.1
8308637
8334818.7
8360991.3
8387231.3
8413475
8439809.1
8466217.4
8492600.5
8519030.7
8545549.3
8572054.4
8598587.1
8625179.9
8651815.1
8678423.8
8705154.8
8731873.5
8758648.1
8785526.2
8812430.1
8839351.9
8866297
8893270.8
8920265.3
8947279.4
8974311.8
9001361.2
9028439.4
9055519.4
9082612.5
9109723.7
9136851.7
9164014.8
9191211.7
9218421.6
9245642.9
9272880.7
9300153.7
9327434.1
9354726.8
9382030.1
9409321.6
9436620.9
9463926.3
9491236.4
9518549.7
9545870.6
9573191.7
9600517.3
9627845.8
9655175.6
9682482.6
9709781.8
9737100.4
9764419.6
9791737.7
9819070.9
9846394
9873711.1
9901020.4
9928314.7
9955603.3
9982878.7
10010134
10037378
10064609
10091826
10119020
10146190
10173340
10200473
10227582
10254659
10281713
10308742
10335740
10362708
10389645
10416544
10443408
10470240
10497004
10523726
10550438
10577133
10603786
10630393
10656981
10683550
10710098
10736595
10763037
10789420
10815746
10842014
10868221
10894363
10920440
10946452
10972398
10998269
11024064
11049789
11075436
11101000
11126484
11151883
11177194
11202422
11227561
11252603
11277549
11302401
11327151
11351797
11376339
11400739
11425025
11449235
11473369
11497385
11521282
11545057
11568703
11592220
11615605
11638817
11661889
11684822
11707573
11730174
11752665
11775002
11797225
11819332
11841270
11863043
11884649
11906080
11927290
11948322
11969211
11989910
12010420
12030735
12050848
12070759
12090461
12109950
12129272
12148419
12167341
12186035
12204541
12222811
12240791
12258524
12276008
12293236
12310201
12326901
12343331
12359482
12375400
12391033
12406375
12421418
12436159
12450590
12464706
12478503
12491972
12505107
12517904
12530304
12542351
12554040
12565310
12576208
12586727
12596859
12606597
12615935
12624864
12633433
12641578
12649291
12656566
12663449
12669876
12675838
12681328
12686336
12690853
12694870
12698377
12701365
12703765
12705566
12706758
12707329
)
;

boundaryField
{
INLET
{
    type            cyclic;
}
OUTLET
{
    type            cyclic;
}
WALL
{
    type            fixedValue;
    value           uniform 0;
}
CENTER
{
    type            symmetryPlane;
}
frontAndBackPlanes
{
    type            empty;
}
}


// ************************************************************************* //

