/*--------------------------------*- C++ -*----------------------------------*\
| =========                 |                                                 |
| \\      /  F ield         | OpenFOAM: The Open Source CFD Toolbox           |
|  \\    /   O peration     | Version:  v1806                                 |
|   \\  /    A nd           | Web:      www.OpenFOAM.com                      |
|    \\/     M anipulation  |                                                 |
\*---------------------------------------------------------------------------*/
FoamFile
{
    version     2.0;
    format      ascii;
    class       volScalarField;
    location    0;
    object      Kj_imp;
}
// * * * * * * * * * * * * * * * * * * * * * * * * * * * * * * * * * * * * * //

dimensions      [0 0 0 0 0 0 0];


internalField   nonuniform List<scalar>
1025
(
772.09911
2318.9361
3872.0586
5431.4838
6997.2285
8569.334
10147.863
11732.793
13324.152
14921.95
16526.235
18137.042
19754.429
21378.369
23008.892
24646.006
26289.745
27940.153
29597.236
31261.017
32931.508
34608.731
36292.742
37983.568
39681.402
41386.094
43097.402
44815.427
46540.344
48272.347
50011.412
51757.335
53510.535
55271.2
57039.107
58814.234
60596.307
62385.522
64182.339
65986.268
67797.291
69615.601
71441.506
73274.648
75114.634
76961.963
78816.615
80678.391
82547.463
84424.017
86308.039
88199.735
90099.305
92006.292
93920.653
95842.683
97772.156
99708.858
101652.97
103604.66
105563.91
107530.71
109504.49
111485.79
113474.77
115471.42
117475.6
119487.21
121506.42
123533.2
125567.54
127608.75
129657.48
131714.79
133779.57
135851.99
137932.24
140020.25
142115.89
144219
146330.33
148449.25
150575.74
152709.78
154851.52
157000.75
159156.75
161320.37
163491.78
165670.95
167857.6
170051.64
172253.07
174461.91
176678.15
178901.94
181134.11
183373.57
185620.67
187876.31
190140.46
192413.31
194693.86
196981.78
199276.82
201578.76
203887.51
206203.6
208526.81
210858.23
213196.86
215542.51
217895.29
220255.36
222622.51
224996.85
227378.22
229766.06
232160.11
234562
236970.37
239385.35
241806.92
244236.61
246674.54
249120.73
251574.97
254035.72
256503.31
258977.51
261457.46
263942.44
266432.58
268928.36
271429.85
273935.3
276444.67
278958.04
281477.22
284002.14
286532.76
289069.18
291611.53
294159.45
296711.54
299264.09
301818.04
304376.89
306942.89
309513.65
312089.12
314669.55
317254.91
319845.1
322440.06
325042.06
327648.88
330257.11
332864.1
335471.16
338082.91
340698.65
343318.19
345941.32
348565.75
351191.52
353820.98
356454.2
359091.26
361733.95
364382.92
367034.89
369680.35
372321.52
374963.92
377610.36
380259.2
382910.35
385565.25
388222.3
390881.44
393545.59
396213.18
398881.16
401547.4
404210.06
406863.31
409511.48
412160.34
414811.29
417462.61
420114.43
422768.15
425423.72
428080.99
430739.84
433400.29
436062.24
438720.47
441366.92
443996.51
446622.73
449250.8
451880.73
454507.62
457134.78
459763.44
462392.28
465025.97
467660.98
470296.06
472929.4
475543.83
478137.25
480722.84
483307.71
485891.75
488477.21
491062.81
493648.57
496235.7
498821.65
501407.56
503994.54
506584.18
509158.33
511701.33
514228.54
516756.23
519284.25
521811.38
524333.81
526857.58
529381.49
531900.41
534418.27
536940.07
539461.61
541962.68
544425.96
546866.48
549306.54
551746.1
554186.13
556625.53
559064.36
561503.57
563941.87
566380.18
568817.7
571253.69
573665.28
576036.22
578385.97
580736.74
583087.47
585437
587786.22
590130.92
592475.35
594819.46
597163.9
599512.85
601848.2
604139.77
606396.86
608646.06
610895.74
613144.83
615398.2
617651.75
619905.45
622154.93
624403.53
626652.11
628892.67
631096.18
633252.25
635389.8
637527.58
639665.26
641803.59
643942.69
646085.9
648233.04
650380.61
652528.77
654672.11
656780.59
658834.86
660864.87
662895.43
664926.57
666963.16
669000.03
671037.3
673075.82
675114.72
677154.31
679186.7
681180.22
683120.71
685039.08
686958.52
688882.91
690812.22
692742.6
694674.1
696606.97
698540.5
700474.82
702392.72
704258.22
706079.31
707891.85
709705.78
711516.66
713325.49
715135.58
716946.77
718759.02
720572.56
722385.08
724164.2
725888.44
727585.94
729285.45
730986.34
732688.7
734397.05
736110.77
737826.21
739539.64
741254.11
742943.84
744578.47
746179.52
747777.04
749376.69
750978.42
752585.55
754194.68
755805.71
757418.57
759033.24
760625.19
762168.38
763677.86
765183.42
766687.24
768193.36
769701.81
771212.04
772720.69
774231.48
775744.08
777229.98
778660.13
780063.61
781469.32
782877.42
784283.99
785688.72
787092.02
788497.68
789905.65
791305.13
792668.29
793989.97
795297.25
796603.35
797911.93
799222.89
800536.06
801851.15
803168.81
804492.33
805795.34
807049.04
808279.21
809511.64
810746.89
811984.65
813224.74
814466.92
815711.32
816958.27
818187.8
819375.24
820536.2
821694.97
822856.18
824019.74
825189.17
826360.92
827534.96
828711.68
829872.15
830992.82
832088.93
833183.37
834280.09
835379.44
836481.37
837585.61
838692.16
839800.78
840889.86
841938.92
842972.71
844008.8
845047.3
846088.37
847131.74
848177.52
849225.76
850271.63
851291.47
852281.7
853259.54
854239.93
855225.63
856213.8
857207.63
858203.56
859202.06
860187.73
861138.66
862073.28
863009.73
863948.35
864886.51
865827.17
866773.21
867721.72
868657.02
869564.63
870452.6
871338.28
872226.41
873116.82
874009.88
874905.18
875802.59
876692.08
877557.34
878405.99
879251.44
880096.79
880941.88
881788.97
882638.05
883489.52
884332.62
885152.35
885955.7
886757.39
887564.08
888375.83
889189.88
890006.23
890824.65
891631.35
892413.27
893183.89
893956.65
894731.62
895506.11
896283.01
897062.08
897838.01
898598.3
899340.87
900078.25
900817.87
901559.47
902303.31
903049.37
903797.62
904536.67
905254.66
905962.9
906673.17
907385.72
908097.85
908812.02
909528.13
910236.41
910926.35
911604.72
912281.76
912958.33
913637.21
914317.94
915000.65
915682.37
916350.52
917009.39
917668.68
918330.13
918993.49
919658.68
920328.49
920994.8
921646.15
922287.13
922926.4
923567.41
924210.27
924855.31
925504.71
926149.78
926782.47
927406.73
928028.22
928649.1
929269.54
929892.06
930518.68
931139.21
931746.5
932345.85
932946.98
933550.05
934157.57
934769.44
935379.9
935981.73
936574.44
937165.15
937757.62
938352.02
938948.4
939546.5
940139.87
940721.82
941298.86
941877.71
942458.31
943040.87
943625.37
944205.33
944776.88
945344.25
945911.34
946480.17
947050.93
947623.49
948192.75
948755.7
949314
949872.92
950436.01
951000.88
951567.73
952134.84
952695.77
953249.43
953799.76
954351.85
954905.24
955460.39
956015.93
956564.01
957105.54
957645.68
958187
958730.32
959275.85
959820.31
960359.44
960893.6
961427.42
961962.68
962499.46
963035.63
963570.2
964099.04
964624.15
965149.48
965678.57
966212.09
966747.26
967281.61
967809.38
968335.22
968862.63
969391.8
969923.04
970451.33
970974.97
971494.74
972014.27
972532.94
973053.44
973575.47
974095.08
974608.84
975120.4
975633.68
976148.88
976665.69
977181.67
977693.11
978201.49
978710.8
979219.31
979727.07
980232.33
980733.99
981232.16
981727.56
982224.52
982723.29
983225.13
983726.71
984224.79
984721.87
985217.69
985715.23
986214.32
986711.17
987203.28
987694.65
988187.85
988680.01
989173.49
989667.64
990159.93
990651.23
991144.34
991639.09
992134.54
992628.08
993118.37
993607.78
994098.81
994591.64
995084.72
995575.5
996063.35
996551.15
997040.38
997533.52
998026.71
998517.33
999005.89
999495.04
999985.77
1000477.8
1000966.4
1001451.4
1001935.5
1002421.3
1002908.4
1003396.2
1003881.8
1004362.6
1004843.6
1005325.6
1005809.4
1006293
1006773.5
1007252.8
1007733.3
1008215.2
1008697.6
1009181.2
1009665.4
1010152.6
1010641.5
1011131.7
1011620.8
1012107.1
1012592.9
1013080.3
1013566.6
1014049.9
1014530.5
1015007.1
1015484.7
1015964.2
1016447.1
1016927.6
1017406.6
1017886.2
1018367.2
1018848.9
1019329.1
1019807.6
1020286.3
1020769.2
1021252.9
1021735.4
1022212.9
1022687.6
1023161
1023635.1
1024108
1024578.8
1025049.4
1025521.6
1025995
1026464.1
1026930.8
1027397.7
1027866.3
1028332.4
1028796.9
1029259.9
1029723.2
1030187.8
1030652.7
1031116
1031578
1032040.6
1032504.8
1032968.8
1033430.6
1033891.8
1034353.9
1034817.5
1035280.5
1035741.1
1036201.7
1036663.9
1037126.5
1037587.8
1038047.8
1038508.2
1038966.8
1039422.2
1039875.7
1040328.2
1040782.2
1041237.1
1041691.1
1042143.4
1042595.8
1043053.1
1043513.6
1043975.9
1044440.7
1044906.7
1045373.6
1045839.5
1046304
1046768.6
1047234.9
1047701.2
1048165.5
1048626
1049087.8
1049550.2
1050011.3
1050471.6
1050932.5
1051394.5
1051859.7
1052323.4
1052787.3
1053252.6
1053717.7
1054177.6
1054637.5
1055099.1
1055560.8
1056021
1056477
1056934.1
1057395.6
1057856
1058315.7
1058776.4
1059237.7
1059698
1060153.9
1060610.7
1061068.2
1061520.9
1061968.9
1062413.7
1062859.3
1063304
1063748.1
1064192.7
1064637.9
1065082.4
1065525.9
1065970.1
1066414.8
1066858.6
1067301.7
1067745.8
1068190.2
1068633.2
1069071.7
1069511.3
1069951
1070389.4
1070827.4
1071266.6
1071705.7
1072139.2
1072572.6
1073007
1073441
1073874.1
1074307.6
1074741.7
1075175.2
1075612.6
1076050.7
1076488.7
1076925.5
1077362.4
1077804.6
1078250.6
1078695.5
1079141.9
1079589.3
1080030.1
1080469
1080910.2
1081352.2
1081795.3
1082243.9
1082694.9
1083143.9
1083592.4
1084041.6
1084489
1084935.8
1085384.8
1085833.4
1086279.9
1086727.3
1087175.6
1087623.3
1088070.6
1088517.3
1088963.3
1089409
1089850.4
1090292.7
1090734.4
1091175.7
1091611.2
1092047.6
1092483.4
1092917.2
1093346.7
1093777
1094206.6
1094631.8
1095057.6
1095481.5
1095904.8
1096328.9
1096751
1097172.5
1097594.7
1098016.3
1098438.6
1098861.6
1099282.6
1099703.1
1100124.3
1100543.5
1100957.7
1101373.8
1101788
1102206.1
1102623.6
1103040.5
1103458
1103876.2
1104292.5
1104708.1
1105125.7
1105542.7
1105956.5
1106369.7
1106777.4
1107178.2
1107579.6
1107980.3
1108379
1108778.3
1109177
1109580.1
1109983.8
1110388.1
1110791.7
1111201.3
1111615.6
1112029.3
1112443.7
1112856.3
1113268.3
1113681
1114093.1
1114504.6
1114915.5
1115325.9
1115735.7
1116150.8
1116564.1
1116978
1117392.8
1117814.3
1118234
1118652
1119070.7
1119489.1
1119905.6
1120321.7
1120736.1
1121150
1121564.7
1121979
1122384.9
1122789.1
1123191.6
1123593.6
1123995
1124395.9
1124803.4
1125209.1
1125615.7
1126013.4
1126408.2
1126801.3
1127202.5
1127603.3
1127994.9
1128384.9
1128782
1129187.6
1129600.6
1130012.1
1130414.1
1130814.6
1131212.3
1131608.4
1132004.1
1132399.5
1132792.1
1133172.3
1133552
1133930.1
1134316.3
1134699.8
1135080.5
1135460.8
1135829.5
1136185.1
1136537.8
1136899.2
1137258.9
1137605.3
1137948.8
1138290.6
1138630.6
1138966.6
1139299.7
1139641
1139978.2
1140312.7
1140644.3
1140973.1
1141296.8
1141616.5
1141926.3
1142234.5
1142537.4
1142832.7
1143129.8
1143429
1143720.4
1144006.6
1144290
1144574.3
1144858.4
1145142.3
1145417.2
1145692
1145960.4
1146227.5
1146495.9
1146761.8
1147018.7
1147273.2
1147522.6
1147761.6
1147998.1
1148222.9
1148448.1
1148665.4
1148868.1
1149071.3
1149267.9
1149459.8
1149638.1
1149811.5
1149978.6
1150136.7
1150285.7
1150432.7
1150573.3
1150711
1150835.4
1150952.2
1151056.8
1151148.9
1151238
1151323
1151404
1151480.8
1151545.3
1151603.1
1151643.9
1151676.3
1151703.4
1151710.9
)
;

boundaryField
{
INLET
{
    type            cyclic;
}
OUTLET
{
    type            cyclic;
}
WALL
{
    type            fixedValue;
    value           uniform 0;
}
CENTER
{
    type            symmetryPlane;
}
frontAndBackPlanes
{
    type            empty;
}
}


// ************************************************************************* //

