/*--------------------------------*- C++ -*----------------------------------*\
| =========                 |                                                 |
| \\      /  F ield         | OpenFOAM: The Open Source CFD Toolbox           |
|  \\    /   O peration     | Version:  v1806                                 |
|   \\  /    A nd           | Web:      www.OpenFOAM.com                      |
|    \\/     M anipulation  |                                                 |
\*---------------------------------------------------------------------------*/
FoamFile
{
    version     2.0;
    format      ascii;
    class       volScalarField;
    location    "10000";
    object      nut;
}
// * * * * * * * * * * * * * * * * * * * * * * * * * * * * * * * * * * * * * //

dimensions      [0 2 -1 0 0 0 0];


internalField   nonuniform List<scalar> 
1025
(
1.87798e-12
1.26711e-10
6.93398e-10
2.05032e-09
4.55965e-09
8.6008e-09
1.45752e-08
2.29126e-08
3.40789e-08
4.85862e-08
6.70054e-08
8.998e-08
1.18243e-07
1.5264e-07
1.94149e-07
2.43912e-07
3.03268e-07
3.73788e-07
4.57323e-07
5.56052e-07
6.72544e-07
8.09824e-07
9.71449e-07
1.16159e-06
1.3851e-06
1.64764e-06
1.95573e-06
2.31687e-06
2.73959e-06
3.23351e-06
3.80942e-06
4.47913e-06
5.25561e-06
6.1528e-06
7.18521e-06
8.36792e-06
9.71621e-06
1.12454e-05
1.29704e-05
1.49049e-05
1.7062e-05
1.94533e-05
2.20894e-05
2.4979e-05
2.81301e-05
3.15494e-05
3.52425e-05
3.92139e-05
4.34679e-05
4.80085e-05
5.28387e-05
5.79603e-05
6.33757e-05
6.90862e-05
7.50924e-05
8.13954e-05
8.79936e-05
9.48843e-05
0.000102065
0.000109533
0.000117284
0.00012531
0.000133605
0.000142161
0.00015097
0.000160022
0.000169308
0.000178815
0.000188536
0.000198456
0.000208566
0.000218854
0.000229308
0.000239919
0.000250674
0.000261564
0.000272577
0.000283706
0.000294941
0.000306271
0.00031769
0.000329189
0.000340761
0.0003524
0.000364098
0.00037585
0.00038765
0.000399494
0.000411376
0.000423293
0.000435239
0.000447212
0.000459208
0.000471225
0.000483259
0.000495309
0.000507371
0.000519443
0.000531524
0.000543613
0.000555706
0.000567804
0.000579906
0.00059201
0.000604116
0.000616222
0.000628326
0.000640432
0.000652537
0.000664639
0.00067674
0.000688839
0.000700935
0.00071303
0.000725123
0.000737213
0.000749301
0.000761387
0.000773472
0.000785555
0.000797636
0.000809716
0.000821796
0.000833876
0.000845955
0.000858035
0.000870115
0.000882195
0.000894278
0.000906362
0.000918448
0.000930537
0.000942631
0.000954727
0.000966828
0.000978933
0.000991043
0.00100316
0.00101528
0.00102741
0.00103955
0.00105169
0.00106385
0.00107601
0.00108818
0.00110036
0.00111256
0.00112476
0.00113697
0.0011492
0.00116144
0.0011737
0.00118596
0.00119825
0.00121054
0.00122286
0.00123518
0.00124753
0.00125989
0.00127227
0.00128467
0.00129709
0.00130953
0.00132198
0.00133446
0.00134696
0.00135948
0.00137202
0.00138458
0.00139717
0.00140978
0.00142242
0.00143508
0.00144777
0.00146047
0.00147321
0.00148598
0.00149877
0.00151159
0.00152444
0.00153731
0.00155021
0.00156315
0.00157612
0.00158911
0.00160214
0.0016152
0.00162829
0.00164141
0.00165457
0.00166776
0.00168099
0.00169425
0.00170754
0.00172087
0.00173424
0.00174764
0.00176108
0.00177456
0.00178808
0.00180163
0.00181522
0.00182885
0.00184252
0.00185624
0.00186999
0.00188378
0.00189762
0.00191149
0.00192542
0.00193938
0.00195339
0.00196743
0.00198152
0.00199567
0.00200985
0.00202407
0.00203834
0.00205267
0.00206703
0.00208145
0.00209591
0.00211042
0.00212498
0.00213958
0.00215424
0.00216895
0.0021837
0.00219851
0.00221337
0.00222828
0.00224323
0.00225825
0.00227332
0.00228843
0.0023036
0.00231882
0.0023341
0.00234943
0.00236482
0.00238026
0.00239576
0.00241131
0.00242692
0.00244259
0.00245831
0.0024741
0.00248993
0.00250583
0.00252179
0.0025378
0.00255388
0.00257001
0.0025862
0.00260246
0.00261878
0.00263516
0.00265159
0.00266809
0.00268465
0.00270127
0.00271796
0.00273472
0.00275153
0.00276841
0.00278535
0.00280236
0.00281943
0.00283657
0.00285377
0.00287104
0.00288838
0.00290579
0.00292325
0.00294079
0.00295839
0.00297607
0.00299381
0.00301162
0.0030295
0.00304745
0.00306547
0.00308357
0.00310173
0.00311996
0.00313826
0.00315663
0.00317508
0.0031936
0.00321219
0.00323085
0.00324959
0.00326839
0.00328728
0.00330624
0.00332527
0.00334438
0.00336356
0.00338282
0.00340215
0.00342156
0.00344104
0.0034606
0.00348024
0.00349996
0.00351975
0.00353962
0.00355956
0.00357959
0.0035997
0.00361988
0.00364014
0.00366049
0.00368091
0.00370141
0.00372199
0.00374265
0.0037634
0.00378423
0.00380514
0.00382613
0.00384719
0.00386835
0.00388959
0.0039109
0.0039323
0.00395379
0.00397536
0.00399701
0.00401875
0.00404057
0.00406248
0.00408447
0.00410655
0.00412871
0.00415095
0.00417329
0.00419571
0.00421822
0.00424082
0.0042635
0.00428626
0.00430912
0.00433206
0.00435509
0.00437821
0.00440142
0.00442472
0.00444811
0.00447158
0.00449515
0.00451881
0.00454255
0.00456639
0.00459031
0.00461433
0.00463844
0.00466264
0.00468693
0.00471131
0.00473578
0.00476035
0.00478501
0.00480976
0.0048346
0.00485954
0.00488456
0.00490969
0.0049349
0.00496021
0.00498561
0.00501111
0.00503671
0.0050624
0.00508818
0.00511405
0.00514002
0.00516608
0.00519225
0.0052185
0.00524486
0.0052713
0.00529785
0.0053245
0.00535123
0.00537807
0.005405
0.00543203
0.00545916
0.00548638
0.0055137
0.00554112
0.00556864
0.00559625
0.00562397
0.00565178
0.00567969
0.0057077
0.0057358
0.00576401
0.00579232
0.00582072
0.00584923
0.00587783
0.00590654
0.00593534
0.00596424
0.00599324
0.00602234
0.00605155
0.00608085
0.00611026
0.00613976
0.00616937
0.00619908
0.00622889
0.0062588
0.0062888
0.00631891
0.00634913
0.00637944
0.00640986
0.00644038
0.006471
0.00650172
0.00653254
0.00656347
0.00659449
0.00662563
0.00665686
0.00668819
0.00671963
0.00675117
0.00678281
0.00681456
0.0068464
0.00687835
0.00691041
0.00694256
0.00697482
0.00700718
0.00703965
0.00707222
0.00710489
0.00713767
0.00717054
0.00720352
0.00723661
0.00726979
0.00730308
0.00733648
0.00736997
0.00740358
0.00743728
0.00747109
0.007505
0.00753901
0.00757312
0.00760735
0.00764168
0.0076761
0.00771064
0.00774527
0.00778001
0.00781485
0.0078498
0.00788484
0.00791999
0.00795525
0.00799061
0.00802606
0.00806163
0.0080973
0.00813307
0.00816895
0.00820492
0.008241
0.00827718
0.00831347
0.00834985
0.00838634
0.00842294
0.00845963
0.00849643
0.00853333
0.00857033
0.00860744
0.00864464
0.00868195
0.00871937
0.00875688
0.00879449
0.00883221
0.00887003
0.00890795
0.00894597
0.00898409
0.00902231
0.00906063
0.00909906
0.00913759
0.00917621
0.00921494
0.00925377
0.00929269
0.00933172
0.00937085
0.00941008
0.0094494
0.00948883
0.00952836
0.00956798
0.00960771
0.00964753
0.00968746
0.00972749
0.00976761
0.00980783
0.00984815
0.00988857
0.00992909
0.00996969
0.0100104
0.0100512
0.0100921
0.0101331
0.0101742
0.0102154
0.0102567
0.0102981
0.0103395
0.0103811
0.0104228
0.0104645
0.0105064
0.0105483
0.0105904
0.0106325
0.0106748
0.0107171
0.0107595
0.010802
0.0108446
0.0108873
0.0109301
0.0109729
0.0110159
0.011059
0.0111021
0.0111453
0.0111887
0.0112321
0.0112756
0.0113191
0.0113628
0.0114066
0.0114504
0.0114944
0.0115384
0.0115825
0.0116267
0.011671
0.0117154
0.0117599
0.0118044
0.0118491
0.0118937
0.0119385
0.0119834
0.0120284
0.0120734
0.0121185
0.0121637
0.012209
0.0122544
0.0122998
0.0123454
0.012391
0.0124367
0.0124824
0.0125282
0.0125742
0.0126202
0.0126663
0.0127124
0.0127586
0.0128049
0.0128513
0.0128978
0.0129443
0.0129909
0.0130375
0.0130843
0.0131311
0.013178
0.013225
0.013272
0.0133191
0.0133662
0.0134134
0.0134607
0.0135081
0.0135556
0.0136031
0.0136506
0.0136983
0.013746
0.0137938
0.0138416
0.0138895
0.0139374
0.0139854
0.0140335
0.0140816
0.0141298
0.0141781
0.0142264
0.0142748
0.0143232
0.0143717
0.0144203
0.0144688
0.0145175
0.0145662
0.014615
0.0146638
0.0147127
0.0147616
0.0148105
0.0148595
0.0149086
0.0149578
0.0150069
0.0150561
0.0151054
0.0151547
0.0152041
0.0152535
0.0153029
0.0153524
0.0154019
0.0154515
0.0155011
0.0155507
0.0156004
0.0156501
0.0156999
0.0157497
0.0157996
0.0158494
0.0158993
0.0159493
0.0159992
0.0160493
0.0160993
0.0161494
0.0161995
0.0162496
0.0162998
0.0163499
0.0164001
0.0164504
0.0165006
0.0165509
0.0166012
0.0166515
0.0167019
0.0167522
0.0168026
0.016853
0.0169035
0.0169539
0.0170043
0.0170548
0.0171053
0.0171558
0.0172063
0.0172568
0.0173074
0.0173579
0.0174084
0.017459
0.0175095
0.0175601
0.0176107
0.0176612
0.0177118
0.0177624
0.0178129
0.0178635
0.0179141
0.0179647
0.0180152
0.0180658
0.0181163
0.0181669
0.0182174
0.0182679
0.0183184
0.018369
0.0184195
0.0184699
0.0185204
0.0185708
0.0186213
0.0186717
0.0187221
0.0187725
0.0188228
0.0188731
0.0189234
0.0189737
0.019024
0.0190742
0.0191244
0.0191746
0.0192247
0.0192748
0.0193249
0.0193749
0.0194249
0.0194749
0.0195248
0.0195747
0.0196246
0.0196744
0.0197241
0.0197739
0.0198236
0.0198732
0.0199228
0.0199723
0.0200218
0.0200712
0.0201206
0.02017
0.0202192
0.0202685
0.0203176
0.0203668
0.0204158
0.0204648
0.0205137
0.0205626
0.0206114
0.0206601
0.0207088
0.0207574
0.0208059
0.0208544
0.0209027
0.020951
0.0209993
0.0210475
0.0210955
0.0211435
0.0211915
0.0212393
0.0212871
0.0213348
0.0213823
0.0214298
0.0214772
0.0215246
0.0215718
0.021619
0.021666
0.021713
0.0217599
0.0218066
0.0218533
0.0218999
0.0219463
0.0219927
0.022039
0.0220851
0.0221312
0.0221772
0.022223
0.0222687
0.0223143
0.0223599
0.0224053
0.0224505
0.0224957
0.0225408
0.0225857
0.0226305
0.0226752
0.0227198
0.0227642
0.0228086
0.0228528
0.0228968
0.0229408
0.0229846
0.0230283
0.0230719
0.0231153
0.0231586
0.0232017
0.0232448
0.0232877
0.0233304
0.023373
0.0234155
0.0234578
0.0235
0.0235421
0.023584
0.0236257
0.0236673
0.0237088
0.0237501
0.0237913
0.0238323
0.0238732
0.0239139
0.0239545
0.0239949
0.0240352
0.0240753
0.0241152
0.0241551
0.0241947
0.0242342
0.0242735
0.0243127
0.0243517
0.0243906
0.0244293
0.0244678
0.0245062
0.0245444
0.0245825
0.0246204
0.0246581
0.0246957
0.0247331
0.0247704
0.0248075
0.0248444
0.0248812
0.0249178
0.0249542
0.0249905
0.0250266
0.0250626
0.0250983
0.025134
0.0251694
0.0252047
0.0252399
0.0252749
0.0253097
0.0253444
0.0253789
0.0254133
0.0254475
0.0254815
0.0255154
0.0255491
0.0255827
0.0256161
0.0256494
0.0256826
0.0257155
0.0257484
0.0257811
0.0258136
0.025846
0.0258783
0.0259104
0.0259424
0.0259742
0.0260059
0.0260375
0.026069
0.0261003
0.0261315
0.0261626
0.0261936
0.0262244
0.0262551
0.0262858
0.0263163
0.0263467
0.026377
0.0264072
0.0264373
0.0264673
0.0264972
0.026527
0.0265568
0.0265865
0.0266161
0.0266456
0.0266751
0.0267045
0.0267338
0.0267631
0.0267923
0.0268215
0.0268506
0.0268798
0.0269088
0.0269379
0.0269669
0.0269959
0.0270249
0.0270539
0.0270829
0.0271119
0.0271409
0.0271699
0.027199
0.027228
0.0272571
0.0272863
0.0273154
0.0273447
0.027374
0.0274033
0.0274327
0.0274622
0.0274918
0.0275215
0.0275512
0.0275811
0.027611
0.0276411
0.0276713
0.0277016
0.027732
0.0277626
0.0277933
0.0278242
0.0278552
0.0278863
0.0279177
0.0279491
0.0279808
0.0280126
0.0280446
0.0280769
0.0281092
0.0281418
0.0281746
0.0282076
0.0282408
0.0282742
0.0283078
0.0283416
0.0283756
0.0284099
0.0284443
0.028479
0.0285138
0.0285489
0.0285842
0.0286197
0.0286554
0.0286912
0.0287273
0.0287636
0.0288
0.0288366
0.0288734
0.0289104
0.0289475
0.0289847
0.0290221
0.0290596
0.0290971
0.0291348
0.0291726
0.0292104
0.0292482
0.0292861
0.0293239
0.0293617
0.0293995
0.0294373
0.0294749
0.0295124
0.0295498
0.029587
0.029624
0.0296608
0.0296973
0.0297335
0.0297694
0.029805
0.0298401
0.0298748
0.029909
0.0299427
0.0299758
0.0300083
0.0300403
0.0300715
0.030102
0.0301317
0.0301606
0.0301886
0.0302158
0.0302419
0.0302671
0.0302913
0.0303143
0.0303363
0.030357
0.0303765
0.0303948
0.0304117
0.0304273
0.0304414
0.0304542
0.0304654
0.0304752
0.0304833
0.0304899
0.0304949
0.0304982
0.0304999
)
;

boundaryField
{
    INLET
    {
        type            cyclic;
    }
    OUTLET
    {
        type            cyclic;
    }
    CENTER
    {
        type            symmetryPlane;
    }
    WALL
    {
        type            fixedValue;
        value           uniform 0;
    }
    frontAndBackPlanes
    {
        type            empty;
    }
}


// ************************************************************************* //
