/*--------------------------------*- C++ -*----------------------------------*\
| =========                 |                                                 |
| \\      /  F ield         | OpenFOAM: The Open Source CFD Toolbox           |
|  \\    /   O peration     | Version:  v1806                                 |
|   \\  /    A nd           | Web:      www.OpenFOAM.com                      |
|    \\/     M anipulation  |                                                 |
\*---------------------------------------------------------------------------*/
FoamFile
{
    version     2.0;
    format      ascii;
    class       volScalarField;
    location    "10000";
    object      p;
}
// * * * * * * * * * * * * * * * * * * * * * * * * * * * * * * * * * * * * * //

dimensions      [0 2 -2 0 0 0 0];


internalField   nonuniform List<scalar> 
1025
(
4.03292e-16
1.55189e-15
1.78792e-15
1.74056e-15
1.71857e-15
1.73038e-15
1.74602e-15
1.75784e-15
1.76755e-15
1.77666e-15
1.78547e-15
1.794e-15
1.80225e-15
1.81029e-15
1.81814e-15
1.82588e-15
1.83351e-15
1.84108e-15
1.84859e-15
1.85606e-15
1.8635e-15
1.8709e-15
1.87827e-15
1.88563e-15
1.89295e-15
1.90027e-15
1.90758e-15
1.91487e-15
1.92216e-15
1.92945e-15
1.93673e-15
1.94402e-15
1.95133e-15
1.95866e-15
1.96602e-15
1.97342e-15
1.98087e-15
1.98839e-15
1.99598e-15
2.00366e-15
2.01144e-15
2.01934e-15
2.02736e-15
2.03552e-15
2.04386e-15
2.05237e-15
2.06108e-15
2.06998e-15
2.0791e-15
2.08848e-15
2.09811e-15
2.10801e-15
2.11822e-15
2.12875e-15
2.13954e-15
2.15069e-15
2.1622e-15
2.17408e-15
2.18635e-15
2.19904e-15
2.21209e-15
2.22556e-15
2.23948e-15
2.25384e-15
2.26867e-15
2.28392e-15
2.29971e-15
2.31599e-15
2.33278e-15
2.35004e-15
2.36778e-15
2.38599e-15
2.40468e-15
2.42399e-15
2.44388e-15
2.46421e-15
2.48502e-15
2.5064e-15
2.52832e-15
2.55078e-15
2.57379e-15
2.59736e-15
2.62139e-15
2.6459e-15
2.67098e-15
2.69661e-15
2.72277e-15
2.74948e-15
2.77662e-15
2.80428e-15
2.8325e-15
2.86123e-15
2.89041e-15
2.92011e-15
2.95032e-15
2.98105e-15
3.01223e-15
3.04386e-15
3.07596e-15
3.10848e-15
3.14141e-15
3.17494e-15
3.20891e-15
3.24329e-15
3.27818e-15
3.31352e-15
3.3492e-15
3.38522e-15
3.42185e-15
3.4588e-15
3.49618e-15
3.53386e-15
3.57198e-15
3.61031e-15
3.64916e-15
3.68851e-15
3.72817e-15
3.76832e-15
3.80872e-15
3.84947e-15
3.89049e-15
3.93199e-15
3.97379e-15
4.01588e-15
4.05841e-15
4.10139e-15
4.14464e-15
4.18813e-15
4.23185e-15
4.2761e-15
4.32061e-15
4.36551e-15
4.41062e-15
4.45611e-15
4.50184e-15
4.54798e-15
4.59436e-15
4.6411e-15
4.68796e-15
4.73511e-15
4.78276e-15
4.83063e-15
4.87877e-15
4.92749e-15
4.97622e-15
5.02504e-15
5.07436e-15
5.12393e-15
5.17362e-15
5.22372e-15
5.27385e-15
5.3243e-15
5.37508e-15
5.42596e-15
5.47715e-15
5.52858e-15
5.58018e-15
5.63201e-15
5.68384e-15
5.73664e-15
5.78921e-15
5.84179e-15
5.89479e-15
5.94798e-15
6.00134e-15
6.05496e-15
6.10883e-15
6.16278e-15
6.21703e-15
6.27162e-15
6.32615e-15
6.3807e-15
6.43557e-15
6.49078e-15
6.54611e-15
6.60161e-15
6.65714e-15
6.7126e-15
6.76901e-15
6.82534e-15
6.88196e-15
6.93851e-15
6.99556e-15
7.05279e-15
7.10976e-15
7.16724e-15
7.22481e-15
7.28281e-15
7.34074e-15
7.39882e-15
7.45724e-15
7.5159e-15
7.57464e-15
7.63344e-15
7.69232e-15
7.75108e-15
7.81044e-15
7.87032e-15
7.92972e-15
7.98908e-15
8.04924e-15
8.10946e-15
8.16972e-15
8.22993e-15
8.29074e-15
8.35143e-15
8.41188e-15
8.47248e-15
8.53357e-15
8.59489e-15
8.65644e-15
8.71785e-15
8.77884e-15
8.8407e-15
8.90184e-15
8.96376e-15
9.02574e-15
9.08764e-15
9.14966e-15
9.21198e-15
9.27481e-15
9.33728e-15
9.3997e-15
9.46203e-15
9.52486e-15
9.58713e-15
9.65048e-15
9.71385e-15
9.77809e-15
9.84157e-15
9.9048e-15
9.96861e-15
1.00328e-14
1.00967e-14
1.01613e-14
1.02261e-14
1.02895e-14
1.03535e-14
1.04184e-14
1.04837e-14
1.05483e-14
1.06125e-14
1.06772e-14
1.07414e-14
1.08055e-14
1.08713e-14
1.09368e-14
1.10021e-14
1.10672e-14
1.11325e-14
1.11986e-14
1.12638e-14
1.1329e-14
1.13943e-14
1.14606e-14
1.15271e-14
1.1593e-14
1.16589e-14
1.17255e-14
1.17922e-14
1.18586e-14
1.19243e-14
1.19906e-14
1.20566e-14
1.21225e-14
1.21891e-14
1.2256e-14
1.2323e-14
1.23902e-14
1.24577e-14
1.25245e-14
1.25915e-14
1.26589e-14
1.27267e-14
1.27942e-14
1.28611e-14
1.29287e-14
1.29969e-14
1.30642e-14
1.31325e-14
1.3201e-14
1.32679e-14
1.33347e-14
1.34024e-14
1.34698e-14
1.35383e-14
1.36066e-14
1.36729e-14
1.37413e-14
1.38107e-14
1.38788e-14
1.39464e-14
1.40141e-14
1.40826e-14
1.41519e-14
1.42207e-14
1.42897e-14
1.43591e-14
1.44271e-14
1.44958e-14
1.4565e-14
1.46332e-14
1.47018e-14
1.47707e-14
1.48397e-14
1.49086e-14
1.49772e-14
1.50474e-14
1.51166e-14
1.51852e-14
1.52545e-14
1.53245e-14
1.53937e-14
1.54632e-14
1.55329e-14
1.56026e-14
1.56725e-14
1.57425e-14
1.58127e-14
1.58815e-14
1.59515e-14
1.60233e-14
1.60934e-14
1.61631e-14
1.62327e-14
1.63022e-14
1.63736e-14
1.64439e-14
1.65145e-14
1.65857e-14
1.66555e-14
1.6726e-14
1.67972e-14
1.68671e-14
1.69377e-14
1.70084e-14
1.70769e-14
1.71476e-14
1.72188e-14
1.729e-14
1.73596e-14
1.74296e-14
1.75005e-14
1.75719e-14
1.76428e-14
1.7713e-14
1.7784e-14
1.78551e-14
1.79266e-14
1.79952e-14
1.80655e-14
1.81354e-14
1.82071e-14
1.82792e-14
1.83505e-14
1.84205e-14
1.84914e-14
1.85632e-14
1.86338e-14
1.87052e-14
1.87754e-14
1.8846e-14
1.89188e-14
1.89913e-14
1.90633e-14
1.91353e-14
1.92082e-14
1.92834e-14
1.93559e-14
1.94241e-14
1.94963e-14
1.95706e-14
1.96463e-14
1.97163e-14
1.97855e-14
1.98595e-14
1.99331e-14
2.00081e-14
2.00804e-14
2.01531e-14
2.02268e-14
2.02988e-14
2.03711e-14
2.04449e-14
2.05195e-14
2.0591e-14
2.06644e-14
2.07364e-14
2.08093e-14
2.08835e-14
2.09574e-14
2.10317e-14
2.11038e-14
2.11776e-14
2.12537e-14
2.13285e-14
2.14015e-14
2.14736e-14
2.15476e-14
2.16215e-14
2.16923e-14
2.17724e-14
2.18464e-14
2.19182e-14
2.19952e-14
2.20718e-14
2.21484e-14
2.22216e-14
2.22956e-14
2.23704e-14
2.24466e-14
2.25251e-14
2.26017e-14
2.2677e-14
2.27502e-14
2.28251e-14
2.29009e-14
2.29775e-14
2.30559e-14
2.31317e-14
2.32066e-14
2.32851e-14
2.336e-14
2.34366e-14
2.35106e-14
2.35908e-14
2.36692e-14
2.37432e-14
2.3819e-14
2.38974e-14
2.39731e-14
2.40471e-14
2.41238e-14
2.41986e-14
2.42752e-14
2.43536e-14
2.44284e-14
2.4505e-14
2.45807e-14
2.46564e-14
2.4733e-14
2.48104e-14
2.48843e-14
2.49634e-14
2.50391e-14
2.51156e-14
2.51886e-14
2.52668e-14
2.5345e-14
2.54223e-14
2.55005e-14
2.55743e-14
2.56498e-14
2.57297e-14
2.58131e-14
2.58807e-14
2.59491e-14
2.60316e-14
2.61132e-14
2.61894e-14
2.62631e-14
2.63419e-14
2.64269e-14
2.64978e-14
2.65679e-14
2.66432e-14
2.67202e-14
2.67989e-14
2.68794e-14
2.69502e-14
2.70297e-14
2.71023e-14
2.71782e-14
2.72524e-14
2.73293e-14
2.74026e-14
2.74819e-14
2.75569e-14
2.76327e-14
2.77077e-14
2.7773e-14
2.78566e-14
2.79357e-14
2.80097e-14
2.80879e-14
2.81653e-14
2.82417e-14
2.83199e-14
2.83954e-14
2.84692e-14
2.85498e-14
2.86278e-14
2.87015e-14
2.87699e-14
2.88452e-14
2.89214e-14
2.89975e-14
2.90753e-14
2.91478e-14
2.92204e-14
2.92929e-14
2.93826e-14
2.94671e-14
2.95429e-14
2.96238e-14
2.97082e-14
2.97908e-14
2.98733e-14
2.99558e-14
3.00417e-14
3.01241e-14
3.0215e-14
3.03123e-14
3.04014e-14
3.04888e-14
3.05761e-14
3.06633e-14
3.07505e-14
3.08393e-14
3.09178e-14
3.10082e-14
3.11037e-14
3.11855e-14
3.12672e-14
3.13591e-14
3.14356e-14
3.15189e-14
3.16021e-14
3.16802e-14
3.17565e-14
3.18412e-14
3.19242e-14
3.20054e-14
3.20882e-14
3.2171e-14
3.22487e-14
3.23331e-14
3.24224e-14
3.25184e-14
3.25941e-14
3.26648e-14
3.27371e-14
3.28311e-14
3.29183e-14
3.29988e-14
3.30876e-14
3.31679e-14
3.32482e-14
3.33301e-14
3.34069e-14
3.3477e-14
3.35736e-14
3.36686e-14
3.37501e-14
3.38266e-14
3.39096e-14
3.39976e-14
3.40838e-14
3.4165e-14
3.42411e-14
3.43188e-14
3.44047e-14
3.44872e-14
3.45762e-14
3.46684e-14
3.47474e-14
3.48067e-14
3.48724e-14
3.49577e-14
3.50397e-14
3.51183e-14
3.52018e-14
3.529e-14
3.53553e-14
3.54254e-14
3.55069e-14
3.55965e-14
3.56713e-14
3.57541e-14
3.58191e-14
3.59001e-14
3.5973e-14
3.60377e-14
3.61169e-14
3.62073e-14
3.62654e-14
3.63266e-14
3.63941e-14
3.64937e-14
3.6574e-14
3.66382e-14
3.66894e-14
3.67406e-14
3.68237e-14
3.68939e-14
3.69513e-14
3.70373e-14
3.71232e-14
3.719e-14
3.72471e-14
3.72979e-14
3.73422e-14
3.74118e-14
3.74844e-14
3.75443e-14
3.76105e-14
3.76891e-14
3.77614e-14
3.78305e-14
3.79026e-14
3.79589e-14
3.80215e-14
3.81058e-14
3.81775e-14
3.82367e-14
3.8327e-14
3.83674e-14
3.84387e-14
3.85316e-14
3.85997e-14
3.86368e-14
3.87016e-14
3.87633e-14
3.88402e-14
3.89201e-14
3.9006e-14
3.9052e-14
3.91163e-14
3.91683e-14
3.92293e-14
3.92933e-14
3.93359e-14
3.94028e-14
3.94938e-14
3.95484e-14
3.95968e-14
3.96784e-14
3.97598e-14
3.98442e-14
3.98923e-14
3.99494e-14
4.00153e-14
4.00812e-14
4.0147e-14
4.02157e-14
4.02932e-14
4.03587e-14
4.04359e-14
4.05101e-14
4.05723e-14
4.06374e-14
4.07142e-14
4.07584e-14
4.08085e-14
4.08937e-14
4.09759e-14
4.10608e-14
4.11164e-14
4.1169e-14
4.1239e-14
4.13205e-14
4.13902e-14
4.14511e-14
4.15322e-14
4.16103e-14
4.16651e-14
4.1717e-14
4.17947e-14
4.18636e-14
4.1921e-14
4.20011e-14
4.20668e-14
4.21039e-14
4.21665e-14
4.22518e-14
4.22972e-14
4.23368e-14
4.2399e-14
4.24498e-14
4.25118e-14
4.25681e-14
4.2613e-14
4.26634e-14
4.27194e-14
4.27696e-14
4.28142e-14
4.28865e-14
4.29421e-14
4.29975e-14
4.30418e-14
4.3097e-14
4.313e-14
4.31741e-14
4.3229e-14
4.32892e-14
4.33166e-14
4.33548e-14
4.33984e-14
4.3431e-14
4.34799e-14
4.35178e-14
4.35394e-14
4.35826e-14
4.36472e-14
4.36848e-14
4.37224e-14
4.37598e-14
4.37919e-14
4.38345e-14
4.38505e-14
4.39089e-14
4.39619e-14
4.40042e-14
4.40306e-14
4.4078e-14
4.412e-14
4.4162e-14
4.42091e-14
4.42091e-14
4.42248e-14
4.4256e-14
4.42975e-14
4.43492e-14
4.43957e-14
4.44215e-14
4.44318e-14
4.44678e-14
4.44985e-14
4.45547e-14
4.45802e-14
4.46057e-14
4.46361e-14
4.46767e-14
4.47322e-14
4.47625e-14
4.47826e-14
4.48027e-14
4.48178e-14
4.48428e-14
4.48627e-14
4.48826e-14
4.49322e-14
4.4962e-14
4.4962e-14
4.49472e-14
4.49816e-14
4.49915e-14
4.49866e-14
4.49964e-14
4.50207e-14
4.50499e-14
4.51129e-14
4.50888e-14
4.51081e-14
4.5137e-14
4.51466e-14
4.51562e-14
4.51753e-14
4.51801e-14
4.52133e-14
4.52466e-14
4.52702e-14
4.52891e-14
4.53079e-14
4.53596e-14
4.53877e-14
4.53877e-14
4.54064e-14
4.54343e-14
4.54435e-14
4.54713e-14
4.54805e-14
4.55173e-14
4.55541e-14
4.5609e-14
4.55999e-14
4.55817e-14
4.55545e-14
4.5636e-14
4.56721e-14
4.56631e-14
4.56631e-14
4.56721e-14
4.569e-14
4.57167e-14
4.57168e-14
4.57168e-14
4.56991e-14
4.5655e-14
4.57166e-14
4.57429e-14
4.57604e-14
4.57692e-14
4.57692e-14
4.57518e-14
4.57519e-14
4.58036e-14
4.57692e-14
4.57778e-14
4.57949e-14
4.58205e-14
4.58801e-14
4.5897e-14
4.58717e-14
4.58464e-14
4.58716e-14
4.59303e-14
4.59387e-14
4.59221e-14
4.59304e-14
4.59552e-14
4.59966e-14
4.59966e-14
4.59966e-14
4.60375e-14
4.60702e-14
4.60377e-14
4.60215e-14
4.60619e-14
4.60942e-14
4.61183e-14
4.61424e-14
4.61504e-14
4.61664e-14
4.6222e-14
4.62299e-14
4.62457e-14
4.62851e-14
4.63087e-14
4.634e-14
4.64102e-14
4.64568e-14
4.64801e-14
4.64801e-14
4.6457e-14
4.64647e-14
4.64877e-14
4.65106e-14
4.64573e-14
4.64801e-14
4.65028e-14
4.65329e-14
4.65329e-14
4.6503e-14
4.64582e-14
4.64731e-14
4.64361e-14
4.6377e-14
4.63328e-14
4.63402e-14
4.63255e-14
4.63037e-14
4.62964e-14
4.63037e-14
4.62603e-14
4.62316e-14
4.62746e-14
4.61817e-14
4.62244e-14
4.62529e-14
4.62599e-14
4.63446e-14
4.63798e-14
4.63377e-14
4.62679e-14
4.62958e-14
4.62958e-14
4.63234e-14
4.63234e-14
4.63509e-14
4.63783e-14
4.64056e-14
4.63784e-14
4.63648e-14
4.63918e-14
4.64053e-14
4.64455e-14
4.64455e-14
4.64855e-14
4.6512e-14
4.6512e-14
4.65252e-14
4.65515e-14
4.65253e-14
4.65905e-14
4.67074e-14
4.66556e-14
4.66556e-14
4.67456e-14
4.68352e-14
4.67587e-14
4.67587e-14
4.6746e-14
4.68218e-14
4.6847e-14
4.69097e-14
4.69596e-14
4.70219e-14
4.71211e-14
4.71582e-14
4.7072e-14
4.70106e-14
4.70962e-14
4.71693e-14
4.72422e-14
4.71817e-14
4.71214e-14
4.71215e-14
4.72052e-14
4.7241e-14
4.72529e-14
4.72529e-14
4.72647e-14
4.72529e-14
4.72529e-14
4.71946e-14
4.7183e-14
4.71482e-14
4.72059e-14
4.71255e-14
4.70796e-14
4.71367e-14
4.71481e-14
4.71368e-14
4.71255e-14
4.71367e-14
4.71592e-14
4.71033e-14
4.70922e-14
4.71144e-14
4.71033e-14
4.71584e-14
4.72242e-14
4.71586e-14
4.71477e-14
4.72129e-14
4.72345e-14
4.72345e-14
4.72453e-14
4.7256e-14
4.7352e-14
4.74477e-14
4.74795e-14
4.75639e-14
4.7648e-14
4.76899e-14
4.76795e-14
4.77524e-14
4.78768e-14
4.78251e-14
4.80208e-14
4.81029e-14
4.82154e-14
4.8297e-14
4.83071e-14
4.83375e-14
4.84484e-14
4.85389e-14
4.8599e-14
4.86489e-14
4.87982e-14
4.88477e-14
4.89367e-14
4.9045e-14
4.91235e-14
4.90942e-14
4.91527e-14
4.92789e-14
4.93854e-14
4.94916e-14
4.96358e-14
4.97317e-14
4.97985e-14
4.98652e-14
4.99601e-14
4.9979e-14
5.00167e-14
5.02045e-14
5.02981e-14
5.02981e-14
5.03911e-14
5.04838e-14
5.05946e-14
5.07603e-14
5.07786e-14
5.07604e-14
5.0815e-14
5.0924e-14
5.09783e-14
5.10504e-14
5.12122e-14
5.12122e-14
5.12479e-14
5.12657e-14
5.13544e-14
5.13897e-14
5.14601e-14
5.15654e-14
5.15304e-14
5.15478e-14
5.17214e-14
5.17387e-14
5.18593e-14
5.18765e-14
5.18765e-14
5.17913e-14
5.17573e-14
5.17404e-14
5.17067e-14
5.17403e-14
5.17737e-14
5.17071e-14
5.16905e-14
5.17236e-14
5.17071e-14
5.16907e-14
5.17723e-14
5.17236e-14
5.16588e-14
5.16427e-14
5.16588e-14
5.16907e-14
5.16271e-14
5.16113e-14
5.16407e-14
)
;

boundaryField
{
    INLET
    {
        type            cyclic;
    }
    OUTLET
    {
        type            cyclic;
    }
    CENTER
    {
        type            symmetryPlane;
    }
    WALL
    {
        type            zeroGradient;
    }
    frontAndBackPlanes
    {
        type            empty;
    }
}


// ************************************************************************* //
