/*--------------------------------*- C++ -*----------------------------------*\
| =========                 |                                                 |
| \\      /  F ield         | OpenFOAM: The Open Source CFD Toolbox           |
|  \\    /   O peration     | Version:  v1806                                 |
|   \\  /    A nd           | Web:      www.OpenFOAM.com                      |
|    \\/     M anipulation  |                                                 |
\*---------------------------------------------------------------------------*/
FoamFile
{
    version     2.0;
    format      ascii;
    class       surfaceScalarField;
    location    "10000";
    object      phi;
}
// * * * * * * * * * * * * * * * * * * * * * * * * * * * * * * * * * * * * * //

dimensions      [0 3 -1 0 0 0 0];
oriented        oriented;


internalField   nonuniform List<scalar> 
1024
(
-3.84558e-18
-3.8454e-18
-3.84544e-18
-3.84532e-18
-3.84536e-18
-3.84527e-18
-3.8453e-18
-3.84524e-18
-3.84528e-18
-3.84523e-18
-3.84526e-18
-3.84522e-18
-3.84525e-18
-3.8452e-18
-3.84521e-18
-3.84517e-18
-3.84519e-18
-3.84517e-18
-3.84518e-18
-3.84514e-18
-3.84515e-18
-3.84515e-18
-3.84518e-18
-3.84517e-18
-3.84522e-18
-3.84521e-18
-3.84523e-18
-3.84523e-18
-3.84522e-18
-3.8452e-18
-3.84519e-18
-3.84517e-18
-3.84515e-18
-3.84515e-18
-3.84514e-18
-3.84515e-18
-3.84515e-18
-3.84516e-18
-3.84516e-18
-3.84517e-18
-3.84517e-18
-3.84513e-18
-3.84512e-18
-3.84512e-18
-3.84509e-18
-3.84508e-18
-3.84503e-18
-3.84503e-18
-3.84501e-18
-3.845e-18
-3.84497e-18
-3.84496e-18
-3.84498e-18
-3.84488e-18
-3.84489e-18
-3.84491e-18
-3.84493e-18
-3.84496e-18
-3.84493e-18
-3.84488e-18
-3.84484e-18
-3.84483e-18
-3.84485e-18
-3.84486e-18
-3.84482e-18
-3.84493e-18
-3.84491e-18
-3.84491e-18
-3.84482e-18
-3.84476e-18
-3.84469e-18
-3.8446e-18
-3.84465e-18
-3.8447e-18
-3.84461e-18
-3.84463e-18
-3.84463e-18
-3.84465e-18
-3.84464e-18
-3.84464e-18
-3.84462e-18
-3.84462e-18
-3.84463e-18
-3.84464e-18
-3.84464e-18
-3.84466e-18
-3.84467e-18
-3.84464e-18
-3.84464e-18
-3.84467e-18
-3.84467e-18
-3.8447e-18
-3.8447e-18
-3.84471e-18
-3.84472e-18
-3.84462e-18
-3.84456e-18
-3.84454e-18
-3.8445e-18
-3.8445e-18
-3.84457e-18
-3.84459e-18
-3.8446e-18
-3.84463e-18
-3.84465e-18
-3.84465e-18
-3.84452e-18
-3.84452e-18
-3.8444e-18
-3.84441e-18
-3.84431e-18
-3.84431e-18
-3.84418e-18
-3.84429e-18
-3.84429e-18
-3.84433e-18
-3.84429e-18
-3.84427e-18
-3.84427e-18
-3.84417e-18
-3.84422e-18
-3.84413e-18
-3.84412e-18
-3.84416e-18
-3.84417e-18
-3.84415e-18
-3.84403e-18
-3.84403e-18
-3.84398e-18
-3.84397e-18
-3.844e-18
-3.84389e-18
-3.84389e-18
-3.84385e-18
-3.84384e-18
-3.8439e-18
-3.84388e-18
-3.84382e-18
-3.8438e-18
-3.84386e-18
-3.84387e-18
-3.84392e-18
-3.84393e-18
-3.84398e-18
-3.84391e-18
-3.84387e-18
-3.84385e-18
-3.8437e-18
-3.84373e-18
-3.84351e-18
-3.84353e-18
-3.84356e-18
-3.84343e-18
-3.84349e-18
-3.84352e-18
-3.84358e-18
-3.84357e-18
-3.84352e-18
-3.84369e-18
-3.84365e-18
-3.84362e-18
-3.84359e-18
-3.84358e-18
-3.84361e-18
-3.84362e-18
-3.84365e-18
-3.84361e-18
-3.84362e-18
-3.84361e-18
-3.84339e-18
-3.84336e-18
-3.84331e-18
-3.84325e-18
-3.84317e-18
-3.84324e-18
-3.84335e-18
-3.84336e-18
-3.84361e-18
-3.84362e-18
-3.84359e-18
-3.84362e-18
-3.84392e-18
-3.84395e-18
-3.84399e-18
-3.84397e-18
-3.844e-18
-3.84407e-18
-3.84405e-18
-3.84406e-18
-3.8441e-18
-3.8441e-18
-3.84409e-18
-3.844e-18
-3.84411e-18
-3.844e-18
-3.84408e-18
-3.84415e-18
-3.84405e-18
-3.84402e-18
-3.84421e-18
-3.84426e-18
-3.84432e-18
-3.8443e-18
-3.84422e-18
-3.84414e-18
-3.84389e-18
-3.84388e-18
-3.84416e-18
-3.84418e-18
-3.84421e-18
-3.84412e-18
-3.84379e-18
-3.84372e-18
-3.84353e-18
-3.84349e-18
-3.84351e-18
-3.84348e-18
-3.84349e-18
-3.84347e-18
-3.8434e-18
-3.8429e-18
-3.84265e-18
-3.84266e-18
-3.84261e-18
-3.84237e-18
-3.84258e-18
-3.84255e-18
-3.84293e-18
-3.84264e-18
-3.84249e-18
-3.84247e-18
-3.84244e-18
-3.84204e-18
-3.84206e-18
-3.842e-18
-3.84184e-18
-3.84184e-18
-3.84189e-18
-3.84189e-18
-3.84152e-18
-3.841e-18
-3.84106e-18
-3.84102e-18
-3.84108e-18
-3.8413e-18
-3.84136e-18
-3.84139e-18
-3.84139e-18
-3.84136e-18
-3.8413e-18
-3.84128e-18
-3.84127e-18
-3.84123e-18
-3.84122e-18
-3.84121e-18
-3.84102e-18
-3.84121e-18
-3.84091e-18
-3.84084e-18
-3.84038e-18
-3.83932e-18
-3.83899e-18
-3.83892e-18
-3.83899e-18
-3.83933e-18
-3.83929e-18
-3.8392e-18
-3.83916e-18
-3.83914e-18
-3.83899e-18
-3.83899e-18
-3.83897e-18
-3.83896e-18
-3.83839e-18
-3.83848e-18
-3.83842e-18
-3.83833e-18
-3.83839e-18
-3.83822e-18
-3.83794e-18
-3.83706e-18
-3.83684e-18
-3.83675e-18
-3.83649e-18
-3.83648e-18
-3.83631e-18
-3.83623e-18
-3.83655e-18
-3.83659e-18
-3.8363e-18
-3.83645e-18
-3.83638e-18
-3.83647e-18
-3.83662e-18
-3.83663e-18
-3.83669e-18
-3.83678e-18
-3.83615e-18
-3.83619e-18
-3.83621e-18
-3.83602e-18
-3.83608e-18
-3.83604e-18
-3.83598e-18
-3.83583e-18
-3.83564e-18
-3.83618e-18
-3.83593e-18
-3.83598e-18
-3.83582e-18
-3.83575e-18
-3.83591e-18
-3.83586e-18
-3.83584e-18
-3.83584e-18
-3.83592e-18
-3.83607e-18
-3.83588e-18
-3.83585e-18
-3.83628e-18
-3.83691e-18
-3.83659e-18
-3.83639e-18
-3.83623e-18
-3.83609e-18
-3.83699e-18
-3.83697e-18
-3.83715e-18
-3.83735e-18
-3.83683e-18
-3.83698e-18
-3.83709e-18
-3.83646e-18
-3.83663e-18
-3.83676e-18
-3.83576e-18
-3.83629e-18
-3.83663e-18
-3.83691e-18
-3.836e-18
-3.83616e-18
-3.83634e-18
-3.83641e-18
-3.83632e-18
-3.83669e-18
-3.83651e-18
-3.83615e-18
-3.83612e-18
-3.83571e-18
-3.83563e-18
-3.83589e-18
-3.83566e-18
-3.83576e-18
-3.83579e-18
-3.83577e-18
-3.83595e-18
-3.83596e-18
-3.83556e-18
-3.83554e-18
-3.83596e-18
-3.83605e-18
-3.83732e-18
-3.83732e-18
-3.83728e-18
-3.8372e-18
-3.83711e-18
-3.83704e-18
-3.83616e-18
-3.83562e-18
-3.83568e-18
-3.83543e-18
-3.8353e-18
-3.83484e-18
-3.83515e-18
-3.8358e-18
-3.83592e-18
-3.83583e-18
-3.83499e-18
-3.83524e-18
-3.83542e-18
-3.83432e-18
-3.83437e-18
-3.83444e-18
-3.83458e-18
-3.83488e-18
-3.83516e-18
-3.83484e-18
-3.83445e-18
-3.83421e-18
-3.83435e-18
-3.83528e-18
-3.83492e-18
-3.83523e-18
-3.83546e-18
-3.83427e-18
-3.83467e-18
-3.8343e-18
-3.83444e-18
-3.83466e-18
-3.83493e-18
-3.83737e-18
-3.83685e-18
-3.83717e-18
-3.83782e-18
-3.83806e-18
-3.83818e-18
-3.83743e-18
-3.83753e-18
-3.8377e-18
-3.83786e-18
-3.83775e-18
-3.8381e-18
-3.83765e-18
-3.8363e-18
-3.83592e-18
-3.83574e-18
-3.8356e-18
-3.83553e-18
-3.83604e-18
-3.83529e-18
-3.83535e-18
-3.83422e-18
-3.83451e-18
-3.83436e-18
-3.83552e-18
-3.83502e-18
-3.8326e-18
-3.8324e-18
-3.83222e-18
-3.83152e-18
-3.83091e-18
-3.83101e-18
-3.83052e-18
-3.83053e-18
-3.83048e-18
-3.82961e-18
-3.82958e-18
-3.82908e-18
-3.8285e-18
-3.82778e-18
-3.82856e-18
-3.82689e-18
-3.82676e-18
-3.82653e-18
-3.82731e-18
-3.82607e-18
-3.82681e-18
-3.82676e-18
-3.82644e-18
-3.82652e-18
-3.82429e-18
-3.82445e-18
-3.82431e-18
-3.82378e-18
-3.82144e-18
-3.82222e-18
-3.82552e-18
-3.82536e-18
-3.82471e-18
-3.82251e-18
-3.82267e-18
-3.8231e-18
-3.81996e-18
-3.81892e-18
-3.81905e-18
-3.81902e-18
-3.81862e-18
-3.81786e-18
-3.81429e-18
-3.81545e-18
-3.81425e-18
-3.81364e-18
-3.81181e-18
-3.81126e-18
-3.80944e-18
-3.81098e-18
-3.8094e-18
-3.80875e-18
-3.80818e-18
-3.80792e-18
-3.81257e-18
-3.81181e-18
-3.81111e-18
-3.81325e-18
-3.81272e-18
-3.81202e-18
-3.81146e-18
-3.8102e-18
-3.81074e-18
-3.81119e-18
-3.80986e-18
-3.80833e-18
-3.80503e-18
-3.80448e-18
-3.80472e-18
-3.80469e-18
-3.80488e-18
-3.80554e-18
-3.8058e-18
-3.80545e-18
-3.81078e-18
-3.81223e-18
-3.81242e-18
-3.81362e-18
-3.81411e-18
-3.81403e-18
-3.81476e-18
-3.81629e-18
-3.81642e-18
-3.81608e-18
-3.82061e-18
-3.82189e-18
-3.81747e-18
-3.81875e-18
-3.8168e-18
-3.81544e-18
-3.81419e-18
-3.81262e-18
-3.80855e-18
-3.80864e-18
-3.80744e-18
-3.80285e-18
-3.80301e-18
-3.80237e-18
-3.79504e-18
-3.79523e-18
-3.79106e-18
-3.78706e-18
-3.78708e-18
-3.79133e-18
-3.79056e-18
-3.7901e-18
-3.78993e-18
-3.78947e-18
-3.79075e-18
-3.79071e-18
-3.78986e-18
-3.78958e-18
-3.78743e-18
-3.78516e-18
-3.78445e-18
-3.78872e-18
-3.78815e-18
-3.78674e-18
-3.79036e-18
-3.78541e-18
-3.78522e-18
-3.78526e-18
-3.78524e-18
-3.78486e-18
-3.79293e-18
-3.79274e-18
-3.79028e-18
-3.79098e-18
-3.79039e-18
-3.79022e-18
-3.78954e-18
-3.78505e-18
-3.7832e-18
-3.78265e-18
-3.78363e-18
-3.78279e-18
-3.78367e-18
-3.77991e-18
-3.77283e-18
-3.76525e-18
-3.7659e-18
-3.76962e-18
-3.77e-18
-3.7701e-18
-3.77005e-18
-3.76983e-18
-3.76159e-18
-3.76118e-18
-3.76099e-18
-3.76057e-18
-3.75482e-18
-3.75605e-18
-3.74614e-18
-3.74521e-18
-3.73927e-18
-3.73508e-18
-3.73504e-18
-3.73546e-18
-3.72605e-18
-3.72699e-18
-3.72741e-18
-3.73318e-18
-3.72974e-18
-3.72047e-18
-3.71068e-18
-3.71006e-18
-3.71638e-18
-3.71451e-18
-3.71201e-18
-3.72106e-18
-3.71564e-18
-3.70633e-18
-3.69877e-18
-3.69211e-18
-3.69394e-18
-3.70353e-18
-3.70444e-18
-3.70472e-18
-3.70285e-18
-3.70876e-18
-3.71027e-18
-3.71027e-18
-3.71145e-18
-3.7104e-18
-3.71159e-18
-3.71278e-18
-3.7078e-18
-3.70116e-18
-3.70301e-18
-3.6958e-18
-3.69667e-18
-3.69386e-18
-3.6903e-18
-3.68653e-18
-3.68423e-18
-3.68302e-18
-3.68595e-18
-3.68513e-18
-3.68534e-18
-3.6694e-18
-3.66999e-18
-3.6637e-18
-3.664e-18
-3.66495e-18
-3.66793e-18
-3.66808e-18
-3.68113e-18
-3.68209e-18
-3.68231e-18
-3.68987e-18
-3.68961e-18
-3.69028e-18
-3.68251e-18
-3.68292e-18
-3.68281e-18
-3.68212e-18
-3.68083e-18
-3.67799e-18
-3.68093e-18
-3.68355e-18
-3.68266e-18
-3.68525e-18
-3.6709e-18
-3.67205e-18
-3.67476e-18
-3.65785e-18
-3.65554e-18
-3.65964e-18
-3.66297e-18
-3.66208e-18
-3.65377e-18
-3.656e-18
-3.65587e-18
-3.65485e-18
-3.64855e-18
-3.64813e-18
-3.64593e-18
-3.63178e-18
-3.6249e-18
-3.62719e-18
-3.62638e-18
-3.61564e-18
-3.60862e-18
-3.6085e-18
-3.59716e-18
-3.58314e-18
-3.58545e-18
-3.58225e-18
-3.56041e-18
-3.55599e-18
-3.55822e-18
-3.55517e-18
-3.5551e-18
-3.5612e-18
-3.54216e-18
-3.54021e-18
-3.53955e-18
-3.53746e-18
-3.53557e-18
-3.55321e-18
-3.53434e-18
-3.53227e-18
-3.52867e-18
-3.53107e-18
-3.51494e-18
-3.5183e-18
-3.51925e-18
-3.52e-18
-3.49992e-18
-3.49957e-18
-3.49821e-18
-3.49544e-18
-3.49874e-18
-3.49803e-18
-3.49759e-18
-3.50293e-18
-3.50826e-18
-3.50275e-18
-3.50198e-18
-3.4904e-18
-3.47776e-18
-3.47983e-18
-3.48271e-18
-3.49959e-18
-3.49271e-18
-3.48306e-18
-3.46802e-18
-3.46126e-18
-3.44846e-18
-3.43581e-18
-3.42032e-18
-3.40362e-18
-3.40739e-18
-3.4044e-18
-3.40374e-18
-3.40248e-18
-3.40921e-18
-3.38964e-18
-3.38271e-18
-3.38727e-18
-3.38666e-18
-3.3817e-18
-3.3753e-18
-3.37834e-18
-3.38216e-18
-3.3858e-18
-3.38919e-18
-3.36979e-18
-3.35138e-18
-3.34361e-18
-3.3469e-18
-3.34491e-18
-3.34235e-18
-3.34046e-18
-3.34494e-18
-3.32858e-18
-3.31243e-18
-3.2852e-18
-3.28857e-18
-3.28947e-18
-3.2934e-18
-3.28832e-18
-3.29178e-18
-3.29797e-18
-3.29622e-18
-3.2725e-18
-3.26751e-18
-3.26634e-18
-3.25097e-18
-3.25427e-18
-3.2498e-18
-3.25143e-18
-3.25271e-18
-3.25164e-18
-3.25192e-18
-3.25304e-18
-3.25416e-18
-3.25128e-18
-3.24346e-18
-3.22951e-18
-3.22489e-18
-3.22218e-18
-3.21553e-18
-3.21527e-18
-3.22494e-18
-3.22647e-18
-3.21994e-18
-3.21521e-18
-3.18714e-18
-3.17933e-18
-3.17369e-18
-3.2046e-18
-3.16981e-18
-3.15982e-18
-3.16331e-18
-3.16901e-18
-3.17495e-18
-3.17799e-18
-3.16705e-18
-3.16331e-18
-3.15997e-18
-3.15571e-18
-3.19161e-18
-3.1886e-18
-3.18451e-18
-3.19242e-18
-3.1749e-18
-3.1576e-18
-3.14788e-18
-3.17376e-18
-3.13787e-18
-3.13767e-18
-3.15062e-18
-3.13761e-18
-3.12428e-18
-3.10965e-18
-3.07128e-18
-3.07014e-18
-3.08215e-18
-3.09169e-18
-3.05659e-18
-3.05374e-18
-3.04585e-18
-3.04262e-18
-3.04198e-18
-3.00147e-18
-2.99933e-18
-3.00134e-18
-3.00961e-18
-2.98116e-18
-2.98058e-18
-3.02092e-18
-3.01985e-18
-3.01715e-18
-3.01468e-18
-3.00722e-18
-3.00704e-18
-3.01645e-18
-3.0205e-18
-3.01724e-18
-3.01921e-18
-3.00837e-18
-2.99905e-18
-2.99629e-18
-2.97089e-18
-2.93515e-18
-2.91593e-18
-2.8747e-18
-2.8613e-18
-2.85338e-18
-2.85064e-18
-2.80099e-18
-2.80483e-18
-2.81033e-18
-2.81522e-18
-2.7786e-18
-2.72668e-18
-2.67501e-18
-2.68306e-18
-2.67087e-18
-2.66842e-18
-2.68173e-18
-2.6928e-18
-2.68226e-18
-2.67637e-18
-2.67478e-18
-2.67287e-18
-2.67424e-18
-2.6751e-18
-2.7281e-18
-2.68382e-18
-2.71103e-18
-2.70812e-18
-2.71727e-18
-2.71722e-18
-2.6599e-18
-2.63943e-18
-2.61863e-18
-2.62571e-18
-2.56613e-18
-2.56791e-18
-2.5562e-18
-2.55485e-18
-2.52807e-18
-2.45622e-18
-2.47918e-18
-2.48765e-18
-2.50213e-18
-2.49669e-18
-2.50929e-18
-2.44275e-18
-2.45791e-18
-2.46077e-18
-2.46225e-18
-2.47145e-18
-2.4745e-18
-2.44482e-18
-2.46105e-18
-2.47945e-18
-2.43125e-18
-2.40429e-18
-2.37752e-18
-2.38043e-18
-2.26523e-18
-2.27875e-18
-2.2991e-18
-2.27729e-18
-2.24217e-18
-2.22316e-18
-2.21435e-18
-2.14633e-18
-2.06566e-18
-1.98657e-18
-1.93684e-18
-1.87001e-18
-1.88087e-18
-1.79277e-18
-1.81816e-18
-1.74135e-18
-1.71816e-18
-1.72037e-18
-1.75149e-18
-1.7375e-18
-1.73778e-18
-1.69429e-18
-1.70331e-18
-1.69226e-18
-1.70453e-18
-1.5968e-18
-1.64724e-18
-1.6635e-18
-1.72887e-18
-1.70357e-18
-1.70457e-18
-1.76675e-18
-1.76875e-18
-1.78009e-18
-1.78643e-18
-1.79318e-18
-1.78814e-18
-1.73769e-18
-1.74271e-18
-1.74144e-18
-1.74808e-18
-1.73541e-18
-1.73932e-18
-1.66512e-18
-1.66142e-18
-1.66579e-18
-1.62205e-18
-1.64676e-18
-1.6584e-18
-1.68172e-18
-1.70229e-18
-1.69223e-18
-1.59856e-18
-1.6255e-18
-1.64647e-18
-1.59363e-18
-1.59491e-18
-1.62377e-18
-1.61513e-18
-1.54695e-18
-1.62908e-18
-1.591e-18
-1.58008e-18
-1.58356e-18
-1.50216e-18
-1.51506e-18
-1.50419e-18
-1.50311e-18
-1.4993e-18
-1.475e-18
-1.53838e-18
-1.45996e-18
-1.44539e-18
-1.45819e-18
-1.38161e-18
-1.32167e-18
-1.38316e-18
-1.42732e-18
-1.44922e-18
-1.42661e-18
-1.4165e-18
-1.40951e-18
-1.30603e-18
-1.32114e-18
-1.32498e-18
-1.20495e-18
-1.24749e-18
-1.35574e-18
-1.34565e-18
-1.35024e-18
-1.36147e-18
-1.31716e-18
-1.34832e-18
-1.3679e-18
-1.27697e-18
-1.24971e-18
-1.26825e-18
-1.29473e-18
-1.27699e-18
-1.26191e-18
-1.27972e-18
-1.06911e-18
-1.03466e-18
-1.03971e-18
-1.019e-18
-1.03566e-18
-1.01268e-18
-1.0187e-18
-8.70672e-19
-9.24653e-19
-9.36722e-19
-7.76687e-19
-7.69654e-19
-7.17457e-19
-6.03946e-19
-4.56777e-19
-4.22617e-19
-3.91464e-19
-4.38608e-19
-4.09793e-19
-4.467e-19
-3.32145e-19
-3.67222e-19
-3.65365e-19
-3.81424e-19
-4.00517e-19
-3.79846e-19
-2.4291e-19
-1.91312e-19
-1.67082e-19
-1.31171e-19
-8.5391e-20
4.36099e-20
-7.39124e-21
3.3495e-20
)
;

boundaryField
{
    INLET
    {
        type            cyclic;
        value           nonuniform List<scalar> 
1025
(
-2.0441e-09
-6.16833e-09
-1.03485e-08
-1.4585e-08
-1.8879e-08
-2.32312e-08
-2.76423e-08
-3.21123e-08
-3.66434e-08
-4.12337e-08
-4.58887e-08
-5.06029e-08
-5.53812e-08
-6.02231e-08
-6.51292e-08
-7.00984e-08
-7.51343e-08
-8.0236e-08
-8.54016e-08
-9.06354e-08
-9.59308e-08
-1.01297e-07
-1.06726e-07
-1.12224e-07
-1.17784e-07
-1.2341e-07
-1.29084e-07
-1.34846e-07
-1.40632e-07
-1.46502e-07
-1.52423e-07
-1.58355e-07
-1.64399e-07
-1.70444e-07
-1.76519e-07
-1.82618e-07
-1.88733e-07
-1.94901e-07
-2.01072e-07
-2.07195e-07
-2.13348e-07
-2.1948e-07
-2.25584e-07
-2.31652e-07
-2.37677e-07
-2.43704e-07
-2.49626e-07
-2.55487e-07
-2.61337e-07
-2.67122e-07
-2.72838e-07
-2.78425e-07
-2.84053e-07
-2.89492e-07
-2.94973e-07
-3.00382e-07
-3.05658e-07
-3.1086e-07
-3.16053e-07
-3.21177e-07
-3.26234e-07
-3.31227e-07
-3.36156e-07
-3.41025e-07
-3.45902e-07
-3.50658e-07
-3.55428e-07
-3.60081e-07
-3.64824e-07
-3.69386e-07
-3.74045e-07
-3.78525e-07
-3.8311e-07
-3.87663e-07
-3.9204e-07
-3.96605e-07
-4.01e-07
-4.05516e-07
-4.09864e-07
-4.1434e-07
-4.1865e-07
-4.23168e-07
-4.27447e-07
-4.3194e-07
-4.36272e-07
-4.40671e-07
-4.45063e-07
-4.4945e-07
-4.5391e-07
-4.5829e-07
-4.62667e-07
-4.67124e-07
-4.71582e-07
-4.76042e-07
-4.80506e-07
-4.85054e-07
-4.89448e-07
-4.94009e-07
-4.98578e-07
-5.03074e-07
-5.07662e-07
-5.12259e-07
-5.16952e-07
-5.2149e-07
-5.26291e-07
-5.30855e-07
-5.35601e-07
-5.40447e-07
-5.4514e-07
-5.49934e-07
-5.54831e-07
-5.59575e-07
-5.64595e-07
-5.69463e-07
-5.74437e-07
-5.79432e-07
-5.84448e-07
-5.89486e-07
-5.94634e-07
-5.99718e-07
-6.04913e-07
-6.10133e-07
-6.15379e-07
-6.20649e-07
-6.26036e-07
-6.31359e-07
-6.36708e-07
-6.42176e-07
-6.47764e-07
-6.53197e-07
-6.58751e-07
-6.64428e-07
-6.70135e-07
-6.75779e-07
-6.81548e-07
-6.87349e-07
-6.93182e-07
-6.99143e-07
-7.05042e-07
-7.1107e-07
-7.17036e-07
-7.2323e-07
-7.29363e-07
-7.35531e-07
-7.41833e-07
-7.48073e-07
-7.54449e-07
-7.60863e-07
-7.67414e-07
-7.73805e-07
-7.80435e-07
-7.87104e-07
-7.93814e-07
-8.00564e-07
-8.07356e-07
-8.14189e-07
-8.21166e-07
-8.28083e-07
-8.3525e-07
-8.42253e-07
-8.49508e-07
-8.56808e-07
-8.64049e-07
-8.71335e-07
-8.78878e-07
-8.86362e-07
-8.93893e-07
-9.01579e-07
-9.09313e-07
-9.16556e-07
-9.24818e-07
-9.33785e-07
-9.40634e-07
-9.48615e-07
-9.56647e-07
-9.65832e-07
-9.72866e-07
-9.82163e-07
-9.90408e-07
-9.98704e-07
-1.00705e-06
-1.01545e-06
-1.02504e-06
-1.03356e-06
-1.04213e-06
-1.05189e-06
-1.06058e-06
-1.06932e-06
-1.07811e-06
-1.08812e-06
-1.09821e-06
-1.10601e-06
-1.11739e-06
-1.1253e-06
-1.13682e-06
-1.14484e-06
-1.1565e-06
-1.16464e-06
-1.17644e-06
-1.18591e-06
-1.19543e-06
-1.20623e-06
-1.2171e-06
-1.22805e-06
-1.23783e-06
-1.24891e-06
-1.26007e-06
-1.27005e-06
-1.2826e-06
-1.29271e-06
-1.30416e-06
-1.31568e-06
-1.326e-06
-1.33894e-06
-1.35068e-06
-1.36122e-06
-1.37311e-06
-1.38637e-06
-1.39712e-06
-1.41056e-06
-1.42277e-06
-1.43374e-06
-1.44742e-06
-1.45987e-06
-1.47239e-06
-1.48634e-06
-1.49769e-06
-1.51181e-06
-1.52467e-06
-1.53897e-06
-1.55063e-06
-1.56511e-06
-1.57968e-06
-1.59297e-06
-1.60634e-06
-1.61979e-06
-1.63473e-06
-1.64977e-06
-1.66349e-06
-1.67872e-06
-1.69262e-06
-1.70804e-06
-1.72213e-06
-1.73918e-06
-1.75201e-06
-1.76927e-06
-1.78373e-06
-1.79975e-06
-1.81586e-06
-1.83061e-06
-1.84841e-06
-1.86335e-06
-1.87987e-06
-1.8965e-06
-1.91475e-06
-1.93009e-06
-1.94704e-06
-1.9641e-06
-1.98127e-06
-1.99854e-06
-2.01592e-06
-2.03497e-06
-2.05258e-06
-2.0703e-06
-2.08813e-06
-2.10607e-06
-2.12571e-06
-2.14388e-06
-2.16217e-06
-2.18217e-06
-2.20069e-06
-2.22094e-06
-2.2397e-06
-2.25857e-06
-2.27919e-06
-2.29995e-06
-2.31919e-06
-2.34019e-06
-2.36134e-06
-2.38094e-06
-2.40234e-06
-2.42388e-06
-2.44555e-06
-2.46566e-06
-2.48759e-06
-2.50965e-06
-2.53186e-06
-2.5542e-06
-2.57668e-06
-2.5993e-06
-2.62206e-06
-2.64496e-06
-2.66799e-06
-2.69294e-06
-2.7145e-06
-2.73974e-06
-2.76335e-06
-2.78711e-06
-2.81281e-06
-2.83686e-06
-2.86106e-06
-2.88723e-06
-2.91172e-06
-2.93821e-06
-2.96301e-06
-2.98981e-06
-3.01492e-06
-3.04204e-06
-3.06933e-06
-3.0949e-06
-3.12251e-06
-3.15029e-06
-3.17824e-06
-3.20445e-06
-3.23465e-06
-3.26118e-06
-3.2898e-06
-3.32054e-06
-3.34756e-06
-3.37866e-06
-3.40602e-06
-3.43748e-06
-3.46715e-06
-3.497e-06
-3.52702e-06
-3.55923e-06
-3.58962e-06
-3.62018e-06
-3.65296e-06
-3.68594e-06
-3.71501e-06
-3.75042e-06
-3.78192e-06
-3.8136e-06
-3.84754e-06
-3.88169e-06
-3.91604e-06
-3.94848e-06
-3.98534e-06
-4.01818e-06
-4.05334e-06
-4.0887e-06
-4.12427e-06
-4.16004e-06
-4.19603e-06
-4.23222e-06
-4.27081e-06
-4.30524e-06
-4.34427e-06
-4.38132e-06
-4.4208e-06
-4.45829e-06
-4.49599e-06
-4.53615e-06
-4.57429e-06
-4.61491e-06
-4.65577e-06
-4.69459e-06
-4.73591e-06
-4.77518e-06
-4.81927e-06
-4.859e-06
-4.90128e-06
-4.9438e-06
-4.98656e-06
-5.02956e-06
-5.07281e-06
-5.11631e-06
-5.16244e-06
-5.20405e-06
-5.25069e-06
-5.29519e-06
-5.34236e-06
-5.38737e-06
-5.43264e-06
-5.4806e-06
-5.52638e-06
-5.57488e-06
-5.62366e-06
-5.67023e-06
-5.71955e-06
-5.76915e-06
-5.81903e-06
-5.86919e-06
-5.9171e-06
-5.97035e-06
-6.02136e-06
-6.07266e-06
-6.12424e-06
-6.1761e-06
-6.22825e-06
-6.28329e-06
-6.33603e-06
-6.39168e-06
-6.44502e-06
-6.50128e-06
-6.55521e-06
-6.6121e-06
-6.66663e-06
-6.72682e-06
-6.78197e-06
-6.84011e-06
-6.89858e-06
-6.95737e-06
-7.01648e-06
-7.07592e-06
-7.13568e-06
-7.19577e-06
-7.25895e-06
-7.31971e-06
-7.38079e-06
-7.44501e-06
-7.50677e-06
-7.57169e-06
-7.63697e-06
-7.69975e-06
-7.76573e-06
-7.82919e-06
-7.89876e-06
-7.96293e-06
-8.03324e-06
-8.09812e-06
-8.16918e-06
-8.23771e-06
-8.30365e-06
-8.3788e-06
-8.44548e-06
-8.51845e-06
-8.59182e-06
-8.6626e-06
-8.73374e-06
-8.80828e-06
-8.88322e-06
-8.95857e-06
-9.03432e-06
-9.10741e-06
-9.18703e-06
-9.26091e-06
-9.34137e-06
-9.41916e-06
-9.49736e-06
-9.5791e-06
-9.65499e-06
-9.74074e-06
-9.82063e-06
-9.90092e-06
-9.98483e-06
-1.00692e-05
-1.01508e-05
-1.02392e-05
-1.03217e-05
-1.04111e-05
-1.04944e-05
-1.05847e-05
-1.06722e-05
-1.07602e-05
-1.08486e-05
-1.09408e-05
-1.10335e-05
-1.11233e-05
-1.1217e-05
-1.13077e-05
-1.14023e-05
-1.15008e-05
-1.15931e-05
-1.16891e-05
-1.17857e-05
-1.18828e-05
-1.19839e-05
-1.2082e-05
-1.21806e-05
-1.22832e-05
-1.23863e-05
-1.24865e-05
-1.25907e-05
-1.26919e-05
-1.28007e-05
-1.29029e-05
-1.30129e-05
-1.31162e-05
-1.32272e-05
-1.33352e-05
-1.34437e-05
-1.35565e-05
-1.36698e-05
-1.378e-05
-1.38908e-05
-1.40095e-05
-1.41214e-05
-1.42413e-05
-1.43544e-05
-1.44718e-05
-1.45935e-05
-1.47121e-05
-1.48313e-05
-1.49548e-05
-1.50752e-05
-1.52e-05
-1.53216e-05
-1.54516e-05
-1.55744e-05
-1.57017e-05
-1.58336e-05
-1.59583e-05
-1.60915e-05
-1.62214e-05
-1.63559e-05
-1.64871e-05
-1.6619e-05
-1.67595e-05
-1.68927e-05
-1.70305e-05
-1.71691e-05
-1.73083e-05
-1.74483e-05
-1.7593e-05
-1.77343e-05
-1.78764e-05
-1.80232e-05
-1.81708e-05
-1.83149e-05
-1.8464e-05
-1.86179e-05
-1.87642e-05
-1.89154e-05
-1.90716e-05
-1.92243e-05
-1.93778e-05
-1.95363e-05
-1.96955e-05
-1.98513e-05
-2.00121e-05
-2.01736e-05
-2.0336e-05
-2.05035e-05
-2.06631e-05
-2.08322e-05
-2.10022e-05
-2.11685e-05
-2.13401e-05
-2.15081e-05
-2.16858e-05
-2.18554e-05
-2.20348e-05
-2.22105e-05
-2.23871e-05
-2.25646e-05
-2.2752e-05
-2.29266e-05
-2.31157e-05
-2.33012e-05
-2.34692e-05
-2.3684e-05
-2.38538e-05
-2.40706e-05
-2.42421e-05
-2.44143e-05
-2.4634e-05
-2.48548e-05
-2.50298e-05
-2.52054e-05
-2.54292e-05
-2.56542e-05
-2.58326e-05
-2.60596e-05
-2.62397e-05
-2.64206e-05
-2.66989e-05
-2.68818e-05
-2.70655e-05
-2.72986e-05
-2.7533e-05
-2.77686e-05
-2.7956e-05
-2.81936e-05
-2.83828e-05
-2.86225e-05
-2.88634e-05
-2.91055e-05
-2.92985e-05
-2.95426e-05
-2.9788e-05
-3.00345e-05
-3.02314e-05
-3.048e-05
-3.07299e-05
-3.09809e-05
-3.12332e-05
-3.14866e-05
-3.16894e-05
-3.19449e-05
-3.22539e-05
-3.24598e-05
-3.2719e-05
-3.29794e-05
-3.3241e-05
-3.35038e-05
-3.37678e-05
-3.39797e-05
-3.42993e-05
-3.4567e-05
-3.48359e-05
-3.5106e-05
-3.53773e-05
-3.56499e-05
-3.59782e-05
-3.61988e-05
-3.65299e-05
-3.67526e-05
-3.70865e-05
-3.73667e-05
-3.76482e-05
-3.79309e-05
-3.82706e-05
-3.85001e-05
-3.88426e-05
-3.91869e-05
-3.94199e-05
-3.9767e-05
-4.0059e-05
-4.04092e-05
-4.06467e-05
-4.09998e-05
-4.13547e-05
-4.16535e-05
-4.19535e-05
-4.23129e-05
-4.26158e-05
-4.29199e-05
-4.32838e-05
-4.36496e-05
-4.39581e-05
-4.42678e-05
-4.46382e-05
-4.50103e-05
-4.53244e-05
-4.56997e-05
-4.60167e-05
-4.63951e-05
-4.67754e-05
-4.70968e-05
-4.74802e-05
-4.78044e-05
-4.8191e-05
-4.85794e-05
-4.89696e-05
-4.92999e-05
-4.97552e-05
-5.00886e-05
-5.04233e-05
-5.08841e-05
-5.1222e-05
-5.16867e-05
-5.20278e-05
-5.24333e-05
-5.28406e-05
-5.32497e-05
-5.36605e-05
-5.40732e-05
-5.44235e-05
-5.49036e-05
-5.53217e-05
-5.57415e-05
-5.61631e-05
-5.65865e-05
-5.70116e-05
-5.74386e-05
-5.7933e-05
-5.82981e-05
-5.87965e-05
-5.9231e-05
-5.96673e-05
-6.01054e-05
-6.06121e-05
-6.10541e-05
-6.1498e-05
-6.2011e-05
-6.24588e-05
-6.29085e-05
-6.33599e-05
-6.38812e-05
-6.44049e-05
-6.48625e-05
-6.53218e-05
-6.58519e-05
-6.63152e-05
-6.68496e-05
-6.73169e-05
-6.78556e-05
-6.83968e-05
-6.88702e-05
-6.94157e-05
-6.98931e-05
-7.0443e-05
-7.09952e-05
-7.15498e-05
-7.20356e-05
-7.25945e-05
-7.31559e-05
-7.37196e-05
-7.42137e-05
-7.47817e-05
-7.54247e-05
-7.59252e-05
-7.65005e-05
-7.7078e-05
-7.7658e-05
-7.82404e-05
-7.88251e-05
-7.94122e-05
-8.00016e-05
-8.05935e-05
-8.11877e-05
-8.17842e-05
-8.24581e-05
-8.30598e-05
-8.36639e-05
-8.42704e-05
-8.48792e-05
-8.55663e-05
-8.61803e-05
-8.6873e-05
-8.74155e-05
-8.81133e-05
-8.88141e-05
-8.94407e-05
-9.00696e-05
-9.07785e-05
-9.14904e-05
-9.21272e-05
-9.27663e-05
-9.34863e-05
-9.42092e-05
-9.48563e-05
-9.56638e-05
-9.6237e-05
-9.70505e-05
-9.77081e-05
-9.8448e-05
-9.91909e-05
-9.98563e-05
-0.000100685
-0.000101356
-0.000102191
-0.000102868
-0.000103628
-0.000104391
-0.000105157
-0.000106008
-0.000106698
-0.000107473
-0.000108334
-0.000109115
-0.000109899
-0.000110686
-0.000111559
-0.000112269
-0.000113148
-0.000114032
-0.000114834
-0.000115639
-0.000116448
-0.000117344
-0.000118244
-0.000119061
-0.000119968
-0.000120792
-0.000121705
-0.000122621
-0.000123455
-0.000124378
-0.000125218
-0.000126235
-0.000127081
-0.000128018
-0.000128958
-0.000129902
-0.000130849
-0.0001318
-0.000132665
-0.000133711
-0.000134672
-0.000135637
-0.000136605
-0.000137666
-0.000138552
-0.00013962
-0.000140603
-0.000141588
-0.000142668
-0.000143661
-0.000144658
-0.000145749
-0.000146845
-0.000147852
-0.000148863
-0.000149969
-0.00015108
-0.000152102
-0.00015322
-0.000154343
-0.000155375
-0.000156599
-0.000157639
-0.000158777
-0.000159919
-0.000160969
-0.000162214
-0.000163368
-0.000164525
-0.000165687
-0.000166852
-0.000168117
-0.000169194
-0.000170468
-0.000171649
-0.000172932
-0.000174121
-0.000175314
-0.000176609
-0.000177811
-0.000179016
-0.000180422
-0.000181635
-0.000182852
-0.000184172
-0.000185497
-0.000186826
-0.000188159
-0.000189397
-0.000190738
-0.000192185
-0.000193435
-0.000194789
-0.000196249
-0.000197511
-0.00019898
-0.00020025
-0.000201728
-0.000203211
-0.000204493
-0.000205984
-0.00020748
-0.000208878
-0.00021028
-0.000211789
-0.000213304
-0.000214719
-0.000216242
-0.000217665
-0.000219197
-0.000220839
-0.000222275
-0.000223821
-0.000225372
-0.000226927
-0.000228486
-0.00023005
-0.000231618
-0.000233191
-0.000234875
-0.000236457
-0.000238043
-0.000239742
-0.000241337
-0.000243045
-0.000244648
-0.000246365
-0.000247978
-0.000249704
-0.000251435
-0.000253061
-0.000254911
-0.000256545
-0.000258405
-0.000260048
-0.000261806
-0.000263569
-0.000265447
-0.000267219
-0.000268995
-0.000270776
-0.000272673
-0.000274462
-0.000276255
-0.000278279
-0.000279968
-0.000281888
-0.000283813
-0.000285742
-0.000287675
-0.000289498
-0.00029144
-0.000293387
-0.000295453
-0.000297293
-0.000299252
-0.000301331
-0.000303299
-0.00030527
-0.000307363
-0.000309343
-0.000311327
-0.000313432
-0.000315541
-0.000317537
-0.000319654
-0.000321776
-0.000323783
-0.000326031
-0.000328046
-0.000330301
-0.000332323
-0.000334587
-0.000336736
-0.000338888
-0.000341043
-0.000343322
-0.000345484
-0.000347771
-0.00034994
-0.000352233
-0.00035453
-0.00035683
-0.000359012
-0.000361318
-0.00036375
-0.000365941
-0.000368256
-0.000370697
-0.000372896
-0.000375343
-0.000377793
-0.000380122
-0.000382454
-0.000384911
-0.000387372
-0.000389711
-0.000392175
-0.000394643
-0.000397112
-0.000399458
-0.000402056
-0.000404532
-0.000407008
-0.000409612
-0.000412092
-0.000414573
-0.000417181
-0.000419665
-0.000422276
-0.000424761
-0.000427501
-0.000429987
-0.000432602
-0.000435217
-0.000437832
-0.000440575
-0.000443191
-0.000445678
-0.00044855
-0.000451166
-0.00045378
-0.000456523
-0.000459265
-0.000461878
-0.000464618
-0.000467487
-0.000470096
-0.000472833
-0.000475697
-0.000478301
-0.000481162
-0.000484022
-0.000486749
-0.000489604
-0.000492326
-0.000495176
-0.000498023
-0.000500736
-0.000503707
-0.000506544
-0.000509378
-0.000512207
-0.000515164
-0.000517985
-0.000520801
-0.000523745
-0.000526683
-0.000529617
-0.000532413
-0.000535467
-0.000538252
-0.000541295
-0.000544199
-0.000547097
-0.000549988
-0.000553004
-0.000556014
-0.000558883
-0.000561877
-0.000564863
-0.00056784
-0.000570809
-0.000573769
-0.00057672
-0.000579794
-0.000582725
-0.00058578
-0.000588691
-0.000591724
-0.000594746
-0.000597757
-0.000600622
-0.000603743
-0.000606717
-0.000609812
-0.000612626
-0.000615829
-0.000618749
-0.000621654
-0.000624813
-0.000627689
-0.000630683
-0.000633795
)
;
    }
    OUTLET
    {
        type            cyclic;
        value           nonuniform List<scalar> 
1025
(
2.0441e-09
6.16833e-09
1.03485e-08
1.4585e-08
1.8879e-08
2.32312e-08
2.76423e-08
3.21123e-08
3.66434e-08
4.12337e-08
4.58887e-08
5.06029e-08
5.53812e-08
6.02231e-08
6.51292e-08
7.00984e-08
7.51343e-08
8.0236e-08
8.54016e-08
9.06354e-08
9.59308e-08
1.01297e-07
1.06726e-07
1.12224e-07
1.17784e-07
1.2341e-07
1.29084e-07
1.34846e-07
1.40632e-07
1.46502e-07
1.52423e-07
1.58355e-07
1.64399e-07
1.70444e-07
1.76519e-07
1.82618e-07
1.88733e-07
1.94901e-07
2.01072e-07
2.07195e-07
2.13348e-07
2.1948e-07
2.25584e-07
2.31652e-07
2.37677e-07
2.43704e-07
2.49626e-07
2.55487e-07
2.61337e-07
2.67122e-07
2.72838e-07
2.78425e-07
2.84053e-07
2.89492e-07
2.94973e-07
3.00382e-07
3.05658e-07
3.1086e-07
3.16053e-07
3.21177e-07
3.26234e-07
3.31227e-07
3.36156e-07
3.41025e-07
3.45902e-07
3.50658e-07
3.55428e-07
3.60081e-07
3.64824e-07
3.69386e-07
3.74045e-07
3.78525e-07
3.8311e-07
3.87663e-07
3.9204e-07
3.96605e-07
4.01e-07
4.05516e-07
4.09864e-07
4.1434e-07
4.1865e-07
4.23168e-07
4.27447e-07
4.3194e-07
4.36272e-07
4.40671e-07
4.45063e-07
4.4945e-07
4.5391e-07
4.5829e-07
4.62667e-07
4.67124e-07
4.71582e-07
4.76042e-07
4.80506e-07
4.85054e-07
4.89448e-07
4.94009e-07
4.98578e-07
5.03074e-07
5.07662e-07
5.12259e-07
5.16952e-07
5.2149e-07
5.26291e-07
5.30855e-07
5.35601e-07
5.40447e-07
5.4514e-07
5.49934e-07
5.54831e-07
5.59575e-07
5.64595e-07
5.69463e-07
5.74437e-07
5.79432e-07
5.84448e-07
5.89486e-07
5.94634e-07
5.99718e-07
6.04913e-07
6.10133e-07
6.15379e-07
6.20649e-07
6.26036e-07
6.31359e-07
6.36708e-07
6.42176e-07
6.47764e-07
6.53197e-07
6.58751e-07
6.64428e-07
6.70135e-07
6.75779e-07
6.81548e-07
6.87349e-07
6.93182e-07
6.99143e-07
7.05042e-07
7.1107e-07
7.17036e-07
7.2323e-07
7.29363e-07
7.35531e-07
7.41833e-07
7.48073e-07
7.54449e-07
7.60863e-07
7.67414e-07
7.73805e-07
7.80435e-07
7.87104e-07
7.93814e-07
8.00564e-07
8.07356e-07
8.14189e-07
8.21166e-07
8.28083e-07
8.3525e-07
8.42253e-07
8.49508e-07
8.56808e-07
8.64049e-07
8.71335e-07
8.78878e-07
8.86362e-07
8.93893e-07
9.01579e-07
9.09313e-07
9.16556e-07
9.24818e-07
9.33785e-07
9.40634e-07
9.48615e-07
9.56647e-07
9.65832e-07
9.72866e-07
9.82163e-07
9.90408e-07
9.98704e-07
1.00705e-06
1.01545e-06
1.02504e-06
1.03356e-06
1.04213e-06
1.05189e-06
1.06058e-06
1.06932e-06
1.07811e-06
1.08812e-06
1.09821e-06
1.10601e-06
1.11739e-06
1.1253e-06
1.13682e-06
1.14484e-06
1.1565e-06
1.16464e-06
1.17644e-06
1.18591e-06
1.19543e-06
1.20623e-06
1.2171e-06
1.22805e-06
1.23783e-06
1.24891e-06
1.26007e-06
1.27005e-06