/*--------------------------------*- C++ -*----------------------------------*\
| =========                 |                                                 |
| \\      /  F ield         | OpenFOAM: The Open Source CFD Toolbox           |
|  \\    /   O peration     | Version:  v1806                                 |
|   \\  /    A nd           | Web:      www.OpenFOAM.com                      |
|    \\/     M anipulation  |                                                 |
\*---------------------------------------------------------------------------*/
FoamFile
{
    version     2.0;
    format      ascii;
    class       volSymmTensorField;
    location    "10000";
    object      turbulenceProperties:R;
}
// * * * * * * * * * * * * * * * * * * * * * * * * * * * * * * * * * * * * * //

dimensions      [0 2 -2 0 0 0 0];


internalField   nonuniform List<symmTensor> 
1025
(
(2.59375e-07 -5.17042e-11 0 2.59375e-07 0 2.59375e-07)
(3.70064e-06 -3.48651e-09 0 3.70064e-06 0 3.70064e-06)
(1.12006e-05 -1.90685e-08 0 1.12006e-05 0 1.12006e-05)
(2.28326e-05 -5.63547e-08 0 2.28326e-05 0 2.28326e-05)
(3.86709e-05 -1.25264e-07 0 3.86709e-05 0 3.86709e-05)
(5.8791e-05 -2.36176e-07 0 5.8791e-05 0 5.8791e-05)
(8.32693e-05 -4.00059e-07 0 8.32693e-05 0 8.32693e-05)
(0.000112183 -6.28641e-07 0 0.000112183 0 0.000112183)
(0.000145609 -9.34632e-07 0 0.000145609 0 0.000145609)
(0.000183626 -1.33199e-06 0 0.000183626 0 0.000183626)
(0.000226313 -1.83624e-06 0 0.000226313 0 0.000226313)
(0.000273751 -2.46489e-06 0 0.000273751 0 0.000273751)
(0.000326015 -3.23783e-06 0 0.000326015 0 0.000326015)
(0.000383187 -4.17796e-06 0 0.000383187 0 0.000383187)
(0.000445344 -5.31176e-06 0 0.000445344 0 0.000445344)
(0.000512562 -6.67e-06 0 0.000512562 0 0.000512562)
(0.000584917 -8.28866e-06 0 0.000584917 0 0.000584917)
(0.000662482 -1.02098e-05 0 0.000662482 0 0.000662482)
(0.000745327 -1.24828e-05 0 0.000745327 0 0.000745327)
(0.000833517 -1.51655e-05 0 0.000833517 0 0.000833517)
(0.000927113 -1.83253e-05 0 0.000927113 0 0.000927113)
(0.00102617 -2.20415e-05 0 0.00102617 0 0.00102617)
(0.00113073 -2.64061e-05 0 0.00113073 0 0.00113073)
(0.00124084 -3.15257e-05 0 0.00124084 0 0.00124084)
(0.00135651 -3.75231e-05 0 0.00135651 0 0.00135651)
(0.00147777 -4.45389e-05 0 0.00147777 0 0.00147777)
(0.00160459 -5.27314e-05 0 0.00160459 0 0.00160459)
(0.00173695 -6.22792e-05 0 0.00173695 0 0.00173695)
(0.0018748 -7.33789e-05 0 0.0018748 0 0.0018748)
(0.00201805 -8.6244e-05 0 0.00201805 0 0.00201805)
(0.0021666 -0.000101104 0 0.0021666 0 0.0021666)
(0.0023203 -0.000118196 0 0.0023203 0 0.0023203)
(0.00247895 -0.000137761 0 0.00247895 0 0.00247895)
(0.00264235 -0.000160038 0 0.00264235 0 0.00264235)
(0.0028102 -0.000185242 0 0.0028102 0 0.0028102)
(0.00298217 -0.000213565 0 0.00298217 0 0.00298217)
(0.00315791 -0.000245156 0 0.00315791 0 0.00315791)
(0.003337 -0.000280116 0 0.003337 0 0.003337)
(0.00351903 -0.000318486 0 0.00351903 0 0.00351903)
(0.00370349 -0.000360232 0 0.00370349 0 0.00370349)
(0.00388987 -0.00040525 0 0.00388987 0 0.00388987)
(0.00407768 -0.000453375 0 0.00407768 0 0.00407768)
(0.00426637 -0.000504375 0 0.00426637 0 0.00426637)
(0.00445543 -0.000557969 0 0.00445543 0 0.00445543)
(0.00464434 -0.000613836 0 0.00464434 0 0.00464434)
(0.00483263 -0.000671637 0 0.00483263 0 0.00483263)
(0.00501983 -0.000731017 0 0.00501983 0 0.00501983)
(0.00520551 -0.000791618 0 0.00520551 0 0.00520551)
(0.00538927 -0.000853104 0 0.00538927 0 0.00538927)
(0.00557081 -0.000915156 0 0.00557081 0 0.00557081)
(0.00574979 -0.000977478 0 0.00574979 0 0.00574979)
(0.00592595 -0.00103979 0 0.00592595 0 0.00592595)
(0.00609907 -0.00110186 0 0.00609907 0 0.00609907)
(0.00626897 -0.00116348 0 0.00626897 0 0.00626897)
(0.00643551 -0.00122447 0 0.00643551 0 0.00643551)
(0.0065986 -0.00128467 0 0.0065986 0 0.0065986)
(0.00675815 -0.00134396 0 0.00675815 0 0.00675815)
(0.0069141 -0.00140224 0 0.0069141 0 0.0069141)
(0.00706644 -0.00145942 0 0.00706644 0 0.00706644)
(0.00721519 -0.00151545 0 0.00721519 0 0.00721519)
(0.00736037 -0.0015703 0 0.00736037 0 0.00736037)
(0.00750203 -0.00162394 0 0.00750203 0 0.00750203)
(0.00764022 -0.00167637 0 0.00764022 0 0.00764022)
(0.00777501 -0.0017276 0 0.00777501 0 0.00777501)
(0.00790651 -0.00177764 0 0.00790651 0 0.00790651)
(0.00803479 -0.00182654 0 0.00803479 0 0.00803479)
(0.00815996 -0.00187432 0 0.00815996 0 0.00815996)
(0.00828212 -0.00192104 0 0.00828212 0 0.00828212)
(0.00840139 -0.00196675 0 0.00840139 0 0.00840139)
(0.00851787 -0.00201151 0 0.00851787 0 0.00851787)
(0.00863167 -0.00205538 0 0.00863167 0 0.00863167)
(0.00874291 -0.00209842 0 0.00874291 0 0.00874291)
(0.00885169 -0.00214069 0 0.00885169 0 0.00885169)
(0.00895814 -0.00218227 0 0.00895814 0 0.00895814)
(0.00906233 -0.00222321 0 0.00906233 0 0.00906233)
(0.00916439 -0.00226358 0 0.00916439 0 0.00916439)
(0.00926441 -0.00230344 0 0.00926441 0 0.00926441)
(0.0093625 -0.00234284 0 0.0093625 0 0.0093625)
(0.00945875 -0.00238186 0 0.00945875 0 0.00945875)
(0.00955324 -0.00242053 0 0.00955324 0 0.00955324)
(0.00964605 -0.00245892 0 0.00964605 0 0.00964605)
(0.00973728 -0.00249708 0 0.00973728 0 0.00973728)
(0.00982701 -0.00253504 0 0.00982701 0 0.00982701)
(0.0099153 -0.00257286 0 0.0099153 0 0.0099153)
(0.0100022 -0.00261058 0 0.0100022 0 0.0100022)
(0.0100879 -0.00264823 0 0.0100879 0 0.0100879)
(0.0101723 -0.00268586 0 0.0101723 0 0.0101723)
(0.0102556 -0.00272349 0 0.0102556 0 0.0102556)
(0.0103377 -0.00276116 0 0.0103377 0 0.0103377)
(0.0104188 -0.0027989 0 0.0104188 0 0.0104188)
(0.0104989 -0.00283673 0 0.0104989 0 0.0104989)
(0.0105781 -0.00287468 0 0.0105781 0 0.0105781)
(0.0106564 -0.00291277 0 0.0106564 0 0.0106564)
(0.0107338 -0.00295103 0 0.0107338 0 0.0107338)
(0.0108104 -0.00298946 0 0.0108104 0 0.0108104)
(0.0108863 -0.0030281 0 0.0108863 0 0.0108863)
(0.0109615 -0.00306695 0 0.0109615 0 0.0109615)
(0.0110359 -0.00310603 0 0.0110359 0 0.0110359)
(0.0111097 -0.00314536 0 0.0111097 0 0.0111097)
(0.0111829 -0.00318494 0 0.0111829 0 0.0111829)
(0.0112556 -0.0032248 0 0.0112556 0 0.0112556)
(0.0113276 -0.00326493 0 0.0113276 0 0.0113276)
(0.0113992 -0.00330535 0 0.0113992 0 0.0113992)
(0.0114702 -0.00334606 0 0.0114702 0 0.0114702)
(0.0115408 -0.00338708 0 0.0115408 0 0.0115408)
(0.011611 -0.0034284 0 0.011611 0 0.011611)
(0.0116807 -0.00347004 0 0.0116807 0 0.0116807)
(0.0117501 -0.003512 0 0.0117501 0 0.0117501)
(0.011819 -0.00355429 0 0.011819 0 0.011819)
(0.0118877 -0.0035969 0 0.0118877 0 0.0118877)
(0.011956 -0.00363985 0 0.011956 0 0.011956)
(0.012024 -0.00368313 0 0.012024 0 0.012024)
(0.0120917 -0.00372674 0 0.0120917 0 0.0120917)
(0.0121591 -0.0037707 0 0.0121591 0 0.0121591)
(0.0122263 -0.00381499 0 0.0122263 0 0.0122263)
(0.0122932 -0.00385963 0 0.0122932 0 0.0122932)
(0.01236 -0.00390461 0 0.01236 0 0.01236)
(0.0124265 -0.00394993 0 0.0124265 0 0.0124265)
(0.0124928 -0.00399559 0 0.0124928 0 0.0124928)
(0.012559 -0.0040416 0 0.012559 0 0.012559)
(0.0126249 -0.00408795 0 0.0126249 0 0.0126249)
(0.0126908 -0.00413464 0 0.0126908 0 0.0126908)
(0.0127565 -0.00418168 0 0.0127565 0 0.0127565)
(0.0128221 -0.00422905 0 0.0128221 0 0.0128221)
(0.0128875 -0.00427676 0 0.0128875 0 0.0128875)
(0.0129529 -0.00432481 0 0.0129529 0 0.0129529)
(0.0130181 -0.0043732 0 0.0130181 0 0.0130181)
(0.0130833 -0.00442192 0 0.0130833 0 0.0130833)
(0.0131484 -0.00447098 0 0.0131484 0 0.0131484)
(0.0132135 -0.00452036 0 0.0132135 0 0.0132135)
(0.0132785 -0.00457008 0 0.0132785 0 0.0132785)
(0.0133434 -0.00462012 0 0.0133434 0 0.0133434)
(0.0134083 -0.00467049 0 0.0134083 0 0.0134083)
(0.0134732 -0.00472118 0 0.0134732 0 0.0134732)
(0.0135381 -0.00477219 0 0.0135381 0 0.0135381)
(0.0136029 -0.00482353 0 0.0136029 0 0.0136029)
(0.0136678 -0.00487517 0 0.0136678 0 0.0136678)
(0.0137326 -0.00492714 0 0.0137326 0 0.0137326)
(0.0137975 -0.00497941 0 0.0137975 0 0.0137975)
(0.0138623 -0.00503199 0 0.0138623 0 0.0138623)
(0.0139272 -0.00508488 0 0.0139272 0 0.0139272)
(0.0139922 -0.00513807 0 0.0139922 0 0.0139922)
(0.0140571 -0.00519156 0 0.0140571 0 0.0140571)
(0.0141221 -0.00524536 0 0.0141221 0 0.0141221)
(0.0141872 -0.00529944 0 0.0141872 0 0.0141872)
(0.0142523 -0.00535382 0 0.0142523 0 0.0142523)
(0.0143174 -0.0054085 0 0.0143174 0 0.0143174)
(0.0143826 -0.00546345 0 0.0143826 0 0.0143826)
(0.0144479 -0.0055187 0 0.0144479 0 0.0144479)
(0.0145133 -0.00557422 0 0.0145133 0 0.0145133)
(0.0145787 -0.00563003 0 0.0145787 0 0.0145787)
(0.0146442 -0.00568611 0 0.0146442 0 0.0146442)
(0.0147098 -0.00574247 0 0.0147098 0 0.0147098)
(0.0147755 -0.0057991 0 0.0147755 0 0.0147755)
(0.0148413 -0.00585599 0 0.0148413 0 0.0148413)
(0.0149072 -0.00591316 0 0.0149072 0 0.0149072)
(0.0149732 -0.00597059 0 0.0149732 0 0.0149732)
(0.0150393 -0.00602828 0 0.0150393 0 0.0150393)
(0.0151055 -0.00608622 0 0.0151055 0 0.0151055)
(0.0151719 -0.00614442 0 0.0151719 0 0.0151719)
(0.0152383 -0.00620288 0 0.0152383 0 0.0152383)
(0.0153049 -0.00626158 0 0.0153049 0 0.0153049)
(0.0153716 -0.00632053 0 0.0153716 0 0.0153716)
(0.0154384 -0.00637973 0 0.0154384 0 0.0154384)
(0.0155053 -0.00643917 0 0.0155053 0 0.0155053)
(0.0155724 -0.00649885 0 0.0155724 0 0.0155724)
(0.0156396 -0.00655876 0 0.0156396 0 0.0156396)
(0.015707 -0.00661891 0 0.015707 0 0.015707)
(0.0157745 -0.0066793 0 0.0157745 0 0.0157745)
(0.0158421 -0.00673992 0 0.0158421 0 0.0158421)
(0.0159099 -0.00680076 0 0.0159099 0 0.0159099)
(0.0159779 -0.00686181 0 0.0159779 0 0.0159779)
(0.016046 -0.00692307 0 0.016046 0 0.016046)
(0.0161142 -0.00698458 0 0.0161142 0 0.0161142)
(0.0161826 -0.00704631 0 0.0161826 0 0.0161826)
(0.0162512 -0.00710824 0 0.0162512 0 0.0162512)
(0.01632 -0.00717039 0 0.01632 0 0.01632)
(0.0163889 -0.00723275 0 0.0163889 0 0.0163889)
(0.0164579 -0.0072953 0 0.0164579 0 0.0164579)
(0.0165272 -0.00735807 0 0.0165272 0 0.0165272)
(0.0165966 -0.00742105 0 0.0165966 0 0.0165966)
(0.0166661 -0.00748424 0 0.0166661 0 0.0166661)
(0.0167359 -0.00754762 0 0.0167359 0 0.0167359)
(0.0168058 -0.00761119 0 0.0168058 0 0.0168058)
(0.0168759 -0.00767495 0 0.0168759 0 0.0168759)
(0.0169462 -0.0077389 0 0.0169462 0 0.0169462)
(0.0170167 -0.00780303 0 0.0170167 0 0.0170167)
(0.0170874 -0.00786736 0 0.0170874 0 0.0170874)
(0.0171582 -0.0079319 0 0.0171582 0 0.0171582)
(0.0172292 -0.00799661 0 0.0172292 0 0.0172292)
(0.0173004 -0.00806149 0 0.0173004 0 0.0173004)
(0.0173718 -0.00812654 0 0.0173718 0 0.0173718)
(0.0174434 -0.00819178 0 0.0174434 0 0.0174434)
(0.0175152 -0.00825719 0 0.0175152 0 0.0175152)
(0.0175872 -0.00832278 0 0.0175872 0 0.0175872)
(0.0176594 -0.00838853 0 0.0176594 0 0.0176594)
(0.0177318 -0.00845445 0 0.0177318 0 0.0177318)
(0.0178043 -0.00852055 0 0.0178043 0 0.0178043)
(0.0178771 -0.0085868 0 0.0178771 0 0.0178771)
(0.0179501 -0.00865321 0 0.0179501 0 0.0179501)
(0.0180233 -0.00871981 0 0.0180233 0 0.0180233)
(0.0180966 -0.00878656 0 0.0180966 0 0.0180966)
(0.0181702 -0.00885347 0 0.0181702 0 0.0181702)
(0.018244 -0.00892051 0 0.018244 0 0.018244)
(0.018318 -0.00898771 0 0.018318 0 0.018318)
(0.0183922 -0.00905507 0 0.0183922 0 0.0183922)
(0.0184666 -0.00912258 0 0.0184666 0 0.0184666)
(0.0185412 -0.00919023 0 0.0185412 0 0.0185412)
(0.018616 -0.00925803 0 0.018616 0 0.018616)
(0.0186911 -0.00932597 0 0.0186911 0 0.0186911)
(0.0187663 -0.00939406 0 0.0187663 0 0.0187663)
(0.0188418 -0.00946229 0 0.0188418 0 0.0188418)
(0.0189174 -0.00953067 0 0.0189174 0 0.0189174)
(0.0189933 -0.00959918 0 0.0189933 0 0.0189933)
(0.0190694 -0.00966782 0 0.0190694 0 0.0190694)
(0.0191458 -0.0097366 0 0.0191458 0 0.0191458)
(0.0192223 -0.00980553 0 0.0192223 0 0.0192223)
(0.019299 -0.00987458 0 0.019299 0 0.019299)
(0.019376 -0.00994376 0 0.019376 0 0.019376)
(0.0194532 -0.0100131 0 0.0194532 0 0.0194532)
(0.0195306 -0.0100825 0 0.0195306 0 0.0195306)
(0.0196082 -0.010152 0 0.0196082 0 0.0196082)
(0.019686 -0.0102217 0 0.019686 0 0.019686)
(0.0197641 -0.0102915 0 0.0197641 0 0.0197641)
(0.0198424 -0.0103614 0 0.0198424 0 0.0198424)
(0.0199209 -0.0104315 0 0.0199209 0 0.0199209)
(0.0199996 -0.0105016 0 0.0199996 0 0.0199996)
(0.0200785 -0.0105719 0 0.0200785 0 0.0200785)
(0.0201577 -0.0106423 0 0.0201577 0 0.0201577)
(0.0202371 -0.0107128 0 0.0202371 0 0.0202371)
(0.0203168 -0.0107834 0 0.0203168 0 0.0203168)
(0.0203966 -0.0108541 0 0.0203966 0 0.0203966)
(0.0204767 -0.0109249 0 0.0204767 0 0.0204767)
(0.020557 -0.0109958 0 0.020557 0 0.020557)
(0.0206375 -0.0110669 0 0.0206375 0 0.0206375)
(0.0207182 -0.011138 0 0.0207182 0 0.0207182)
(0.0207992 -0.0112093 0 0.0207992 0 0.0207992)
(0.0208804 -0.0112806 0 0.0208804 0 0.0208804)
(0.0209618 -0.0113521 0 0.0209618 0 0.0209618)
(0.0210435 -0.0114236 0 0.0210435 0 0.0210435)
(0.0211253 -0.0114953 0 0.0211253 0 0.0211253)
(0.0212075 -0.011567 0 0.0212075 0 0.0212075)
(0.0212898 -0.0116388 0 0.0212898 0 0.0212898)
(0.0213724 -0.0117108 0 0.0213724 0 0.0213724)
(0.0214551 -0.0117828 0 0.0214551 0 0.0214551)
(0.0215382 -0.0118549 0 0.0215382 0 0.0215382)
(0.0216214 -0.0119271 0 0.0216214 0 0.0216214)
(0.0217049 -0.0119994 0 0.0217049 0 0.0217049)
(0.0217886 -0.0120718 0 0.0217886 0 0.0217886)
(0.0218725 -0.0121442 0 0.0218725 0 0.0218725)
(0.0219567 -0.0122168 0 0.0219567 0 0.0219567)
(0.0220411 -0.0122894 0 0.0220411 0 0.0220411)
(0.0221257 -0.0123621 0 0.0221257 0 0.0221257)
(0.0222105 -0.0124349 0 0.0222105 0 0.0222105)
(0.0222956 -0.0125078 0 0.0222956 0 0.0222956)
(0.022381 -0.0125807 0 0.022381 0 0.022381)
(0.0224665 -0.0126537 0 0.0224665 0 0.0224665)
(0.0225523 -0.0127268 0 0.0225523 0 0.0225523)
(0.0226383 -0.0128 0 0.0226383 0 0.0226383)
(0.0227245 -0.0128733 0 0.0227245 0 0.0227245)
(0.0228109 -0.0129466 0 0.0228109 0 0.0228109)
(0.0228976 -0.01302 0 0.0228976 0 0.0228976)
(0.0229845 -0.0130934 0 0.0229845 0 0.0229845)
(0.0230717 -0.013167 0 0.0230717 0 0.0230717)
(0.0231591 -0.0132406 0 0.0231591 0 0.0231591)
(0.0232467 -0.0133142 0 0.0232467 0 0.0232467)
(0.0233345 -0.013388 0 0.0233345 0 0.0233345)
(0.0234226 -0.0134618 0 0.0234226 0 0.0234226)
(0.0235109 -0.0135356 0 0.0235109 0 0.0235109)
(0.0235994 -0.0136095 0 0.0235994 0 0.0235994)
(0.0236881 -0.0136835 0 0.0236881 0 0.0236881)
(0.0237771 -0.0137576 0 0.0237771 0 0.0237771)
(0.0238663 -0.0138317 0 0.0238663 0 0.0238663)
(0.0239557 -0.0139058 0 0.0239557 0 0.0239557)
(0.0240454 -0.01398 0 0.0240454 0 0.0240454)
(0.0241353 -0.0140543 0 0.0241353 0 0.0241353)
(0.0242254 -0.0141286 0 0.0242254 0 0.0242254)
(0.0243157 -0.014203 0 0.0243157 0 0.0243157)
(0.0244063 -0.0142774 0 0.0244063 0 0.0244063)
(0.0244972 -0.0143519 0 0.0244972 0 0.0244972)
(0.0245882 -0.0144264 0 0.0245882 0 0.0245882)
(0.0246794 -0.014501 0 0.0246794 0 0.0246794)
(0.0247709 -0.0145756 0 0.0247709 0 0.0247709)
(0.0248627 -0.0146503 0 0.0248627 0 0.0248627)
(0.0249546 -0.014725 0 0.0249546 0 0.0249546)
(0.0250467 -0.0147998 0 0.0250467 0 0.0250467)
(0.0251391 -0.0148746 0 0.0251391 0 0.0251391)
(0.0252317 -0.0149494 0 0.0252317 0 0.0252317)
(0.0253246 -0.0150243 0 0.0253246 0 0.0253246)
(0.0254176 -0.0150992 0 0.0254176 0 0.0254176)
(0.0255109 -0.0151742 0 0.0255109 0 0.0255109)
(0.0256044 -0.0152492 0 0.0256044 0 0.0256044)
(0.0256982 -0.0153242 0 0.0256982 0 0.0256982)
(0.0257921 -0.0153993 0 0.0257921 0 0.0257921)
(0.0258863 -0.0154744 0 0.0258863 0 0.0258863)
(0.0259807 -0.0155496 0 0.0259807 0 0.0259807)
(0.0260754 -0.0156247 0 0.0260754 0 0.0260754)
(0.0261702 -0.0156999 0 0.0261702 0 0.0261702)
(0.0262653 -0.0157752 0 0.0262653 0 0.0262653)
(0.0263606 -0.0158504 0 0.0263606 0 0.0263606)
(0.0264561 -0.0159257 0 0.0264561 0 0.0264561)
(0.0265518 -0.0160011 0 0.0265518 0 0.0265518)
(0.0266478 -0.0160764 0 0.0266478 0 0.0266478)
(0.0267439 -0.0161518 0 0.0267439 0 0.0267439)
(0.0268403 -0.0162272 0 0.0268403 0 0.0268403)
(0.0269369 -0.0163026 0 0.0269369 0 0.0269369)
(0.0270338 -0.0163781 0 0.0270338 0 0.0270338)
(0.0271308 -0.0164536 0 0.0271308 0 0.0271308)
(0.0272281 -0.016529 0 0.0272281 0 0.0272281)
(0.0273255 -0.0166046 0 0.0273255 0 0.0273255)
(0.0274232 -0.0166801 0 0.0274232 0 0.0274232)
(0.0275211 -0.0167556 0 0.0275211 0 0.0275211)
(0.0276193 -0.0168312 0 0.0276193 0 0.0276193)
(0.0277176 -0.0169068 0 0.0277176 0 0.0277176)
(0.0278161 -0.0169824 0 0.0278161 0 0.0278161)
(0.0279149 -0.017058 0 0.0279149 0 0.0279149)
(0.0280139 -0.0171336 0 0.0280139 0 0.0280139)
(0.028113 -0.0172092 0 0.028113 0 0.028113)
(0.0282125 -0.0172849 0 0.0282125 0 0.0282125)
(0.0283121 -0.0173605 0 0.0283121 0 0.0283121)
(0.0284119 -0.0174362 0 0.0284119 0 0.0284119)
(0.0285119 -0.0175118 0 0.0285119 0 0.0285119)
(0.0286122 -0.0175875 0 0.0286122 0 0.0286122)
(0.0287126 -0.0176632 0 0.0287126 0 0.0287126)
(0.0288132 -0.0177388 0 0.0288132 0 0.0288132)
(0.0289141 -0.0178145 0 0.0289141 0 0.0289141)
(0.0290152 -0.0178902 0 0.0290152 0 0.0290152)
(0.0291164 -0.0179659 0 0.0291164 0 0.0291164)
(0.0292179 -0.0180416 0 0.0292179 0 0.0292179)
(0.0293196 -0.0181173 0 0.0293196 0 0.0293196)
(0.0294215 -0.018193 0 0.0294215 0 0.0294215)
(0.0295236 -0.0182686 0 0.0295236 0 0.0295236)
(0.0296259 -0.0183443 0 0.0296259 0 0.0296259)
(0.0297284 -0.01842 0 0.0297284 0 0.0297284)
(0.029831 -0.0184957 0 0.029831 0 0.029831)
(0.0299339 -0.0185713 0 0.0299339 0 0.0299339)
(0.030037 -0.018647 0 0.030037 0 0.030037)
(0.0301403 -0.0187226 0 0.0301403 0 0.0301403)
(0.0302438 -0.0187983 0 0.0302438 0 0.0302438)
(0.0303475 -0.0188739 0 0.0303475 0 0.0303475)
(0.0304514 -0.0189495 0 0.0304514 0 0.0304514)
(0.0305555 -0.0190251 0 0.0305555 0 0.0305555)
(0.0306597 -0.0191007 0 0.0306597 0 0.0306597)
(0.0307642 -0.0191763 0 0.0307642 0 0.0307642)
(0.0308688 -0.0192518 0 0.0308688 0 0.0308688)
(0.0309737 -0.0193274 0 0.0309737 0 0.0309737)
(0.0310787 -0.0194029 0 0.0310787 0 0.0310787)
(0.0311839 -0.0194784 0 0.0311839 0 0.0311839)
(0.0312893 -0.0195539 0 0.0312893 0 0.0312893)
(0.031395 -0.0196293 0 0.031395 0 0.031395)
(0.0315008 -0.0197048 0 0.0315008 0 0.0315008)
(0.0316068 -0.0197802 0 0.0316068 0 0.0316068)
(0.0317129 -0.0198556 0 0.0317129 0 0.0317129)
(0.0318193 -0.0199309 0 0.0318193 0 0.0318193)
(0.0319258 -0.0200063 0 0.0319258 0 0.0319258)
(0.0320325 -0.0200816 0 0.0320325 0 0.0320325)
(0.0321394 -0.0201569 0 0.0321394 0 0.0321394)
(0.0322465 -0.0202321 0 0.0322465 0 0.0322465)
(0.0323538 -0.0203073 0 0.0323538 0 0.0323538)
(0.0324612 -0.0203825 0 0.0324612 0 0.0324612)
(0.0325688 -0.0204577 0 0.0325688 0 0.0325688)
(0.0326766 -0.0205328 0 0.0326766 0 0.0326766)
(0.0327846 -0.0206079 0 0.0327846 0 0.0327846)
(0.0328927 -0.020683 0 0.0328927 0 0.0328927)
(0.033001 -0.020758 0 0.033001 0 0.033001)
(0.0331095 -0.020833 0 0.0331095 0 0.0331095)
(0.0332182 -0.0209079 0 0.0332182 0 0.0332182)
(0.033327 -0.0209828 0 0.033327 0 0.033327)
(0.033436 -0.0210577 0 0.033436 0 0.033436)
(0.0335452 -0.0211325 0 0.0335452 0 0.0335452)
(0.0336545 -0.0212073 0 0.0336545 0 0.0336545)
(0.0337641 -0.021282 0 0.0337641 0 0.0337641)
(0.0338737 -0.0213567 0 0.0338737 0 0.0338737)
(0.0339836 -0.0214314 0 0.0339836 0 0.0339836)
(0.0340936 -0.021506 0 0.0340936 0 0.0340936)
(0.0342037 -0.0215805 0 0.0342037 0 0.0342037)
(0.034314 -0.021655 0 0.034314 0 0.034314)
(0.0344245 -0.0217295 0 0.0344245 0 0.0344245)
(0.0345352 -0.0218039 0 0.0345352 0 0.0345352)
(0.034646 -0.0218782 0 0.034646 0 0.034646)
(0.0347569 -0.0219525 0 0.0347569 0 0.0347569)
(0.034868 -0.0220268 0 0.034868 0 0.034868)
(0.0349793 -0.022101 0 0.0349793 0 0.0349793)
(0.0350907 -0.0221751 0 0.0350907 0 0.0350907)
(0.0352023 -0.0222491 0 0.0352023 0 0.0352023)
(0.035314 -0.0223232 0 0.035314 0 0.035314)
(0.0354258 -0.0223971 0 0.0354258 0 0.0354258)
(0.0355379 -0.022471 0 0.0355379 0 0.0355379)
(0.03565 -0.0225448 0 0.03565 0 0.03565)
(0.0357623 -0.0226186 0 0.0357623 0 0.0357623)
(0.0358747 -0.0226923 0 0.0358747 0 0.0358747)
(0.0359873 -0.0227659 0 0.0359873 0 0.0359873)
(0.0361 -0.0228395 0 0.0361 0 0.0361)
(0.0362129 -0.022913 0 0.0362129 0 0.0362129)
(0.0363259 -0.0229864 0 0.0363259 0 0.0363259)
(0.0364391 -0.0230598 0 0.0364391 0 0.0364391)
(0.0365523 -0.0231331 0 0.0365523 0 0.0365523)
(0.0366658 -0.0232063 0 0.0366658 0 0.0366658)
(0.0367793 -0.0232794 0 0.0367793 0 0.0367793)
(0.036893 -0.0233525 0 0.036893 0 0.036893)
(0.0370068 -0.0234255 0 0.0370068 0 0.0370068)
(0.0371207 -0.0234984 0 0.0371207 0 0.0371207)
(0.0372348 -0.0235712 0 0.0372348 0 0.0372348)
(0.0373489 -0.023644 0 0.0373489 0 0.0373489)
(0.0374632 -0.0237167 0 0.0374632 0 0.0374632)
(0.0375777 -0.0237893 0 0.0375777 0 0.0375777)
(0.0376922 -0.0238618 0 0.0376922 0 0.0376922)
(0.0378069 -0.0239342 0 0.0378069 0 0.0378069)
(0.0379217 -0.0240066 0 0.0379217 0 0.0379217)
(0.0380366 -0.0240788 0 0.0380366 0 0.0380366)
(0.0381516 -0.024151 0 0.0381516 0 0.0381516)
(0.0382667 -0.0242231 0 0.0382667 0 0.0382667)
(0.0383819 -0.0242951 0 0.0383819 0 0.0383819)
(0.0384973 -0.024367 0 0.0384973 0 0.0384973)
(0.0386127 -0.0244388 0 0.0386127 0 0.0386127)
(0.0387283 -0.0245106 0 0.0387283 0 0.0387283)
(0.038844 -0.0245822 0 0.038844 0 0.038844)
(0.0389597 -0.0246537 0 0.0389597 0 0.0389597)
(0.0390756 -0.0247252 0 0.0390756 0 0.0390756)
(0.0391916 -0.0247965 0 0.0391916 0 0.0391916)
(0.0393077 -0.0248678 0 0.0393077 0 0.0393077)
(0.0394238 -0.0249389 0 0.0394238 0 0.0394238)
(0.0395401 -0.0250099 0 0.0395401 0 0.0395401)
(0.0396565 -0.0250809 0 0.0396565 0 0.0396565)
(0.0397729 -0.0251517 0 0.0397729 0 0.0397729)
(0.0398895 -0.0252224 0 0.0398895 0 0.0398895)
(0.0400061 -0.0252931 0 0.0400061 0 0.0400061)
(0.0401228 -0.0253636 0 0.0401228 0 0.0401228)
(0.0402396 -0.025434 0 0.0402396 0 0.0402396)
(0.0403565 -0.0255043 0 0.0403565 0 0.0403565)
(0.0404734 -0.0255745 0 0.0404734 0 0.0404734)
(0.0405905 -0.0256446 0 0.0405905 0 0.0405905)
(0.0407076 -0.0257146 0 0.0407076 0 0.0407076)
(0.0408248 -0.0257844 0 0.0408248 0 0.0408248)
(0.0409421 -0.0258541 0 0.0409421 0 0.0409421)
(0.0410594 -0.0259238 0 0.0410594 0 0.0410594)
(0.0411768 -0.0259933 0 0.0411768 0 0.0411768)
(0.0412943 -0.0260626 0 0.0412943 0 0.0412943)
(0.0414118 -0.0261319 0 0.0414118 0 0.0414118)
(0.0415294 -0.026201 0 0.0415294 0 0.0415294)
(0.0416471 -0.0262701 0 0.0416471 0 0.0416471)
(0.0417649 -0.0263389 0 0.0417649 0 0.0417649)
(0.0418826 -0.0264077 0 0.0418826 0 0.0418826)
(0.0420005 -0.0264764 0 0.0420005 0 0.0420005)
(0.0421184 -0.0265449 0 0.0421184 0 0.0421184)
(0.0422364 -0.0266132 0 0.0422364 0 0.0422364)
(0.0423543 -0.0266815 0 0.0423543 0 0.0423543)
(0.0424724 -0.0267496 0 0.0424724 0 0.0424724)
(0.0425905 -0.0268176 0 0.0425905 0 0.0425905)
(0.0427086 -0.0268855 0 0.0427086 0 0.0427086)
(0.0428268 -0.0269532 0 0.0428268 0 0.0428268)
(0.0429451 -0.0270208 0 0.0429451 0 0.0429451)
(0.0430633 -0.0270882 0 0.0430633 0 0.0430633)
(0.0431816 -0.0271555 0 0.0431816 0 0.0431816)
(0.0433 -0.0272227 0 0.0433 0 0.0433)
(0.0434183 -0.0272897 0 0.0434183 0 0.0434183)
(0.0435367 -0.0273566 0 0.0435367 0 0.0435367)
(0.0436551 -0.0274233 0 0.0436551 0 0.0436551)
(0.0437736 -0.0274899 0 0.0437736 0 0.0437736)
(0.0438921 -0.0275563 0 0.0438921 0 0.0438921)
(0.0440106 -0.0276226 0 0.0440106 0 0.0440106)
(0.0441291 -0.0276888 0 0.0441291 0 0.0441291)
(0.0442476 -0.0277548 0 0.0442476 0 0.0442476)
(0.0443661 -0.0278206 0 0.0443661 0 0.0443661)
(0.0444847 -0.0278863 0 0.0444847 0 0.0444847)
(0.0446033 -0.0279518 0 0.0446033 0 0.0446033)
(0.0447218 -0.0280172 0 0.0447218 0 0.0447218)
(0.0448404 -0.0280824 0 0.0448404 0 0.0448404)
(0.044959 -0.0281474 0 0.044959 0 0.044959)
(0.0450776 -0.0282123 0 0.0450776 0 0.0450776)
(0.0451961 -0.0282771 0 0.0451961 0 0.0451961)
(0.0453147 -0.0283416 0 0.0453147 0 0.0453147)
(0.0454333 -0.028406 0 0.0454333 0 0.0454333)
(0.0455519 -0.0284703 0 0.0455519 0 0.0455519)
(0.0456704 -0.0285343 0 0.0456704 0 0.0456704)
(0.0457889 -0.0285983 0 0.0457889 0 0.0457889)
(0.0459075 -0.028662 0 0.0459075 0 0.0459075)
(0.046026 -0.0287255 0 0.046026 0 0.046026)
(0.0461444 -0.0287889 0 0.0461444 0 0.0461444)
(0.0462629 -0.0288521 0 0.0462629 0 0.0462629)
(0.0463813 -0.0289152 0 0.0463813 0 0.0463813)
(0.0464997 -0.0289781 0 0.0464997 0 0.0464997)
(0.0466181 -0.0290407 0 0.0466181 0 0.0466181)
(0.0467364 -0.0291032 0 0.0467364 0 0.0467364)
(0.0468547 -0.0291656 0 0.0468547 0 0.0468547)
(0.046973 -0.0292277 0 0.046973 0 0.046973)
(0.0470912 -0.0292897 0 0.0470912 0 0.0470912)
(0.0472094 -0.0293514 0 0.0472094 0 0.0472094)
(0.0473275 -0.029413 0 0.0473275 0 0.0473275)
(0.0474456 -0.0294744 0 0.0474456 0 0.0474456)
(0.0475637 -0.0295356 0 0.0475637 0 0.0475637)
(0.0476816 -0.0295966 0 0.0476816 0 0.0476816)
(0.0477995 -0.0296574 0 0.0477995 0 0.0477995)
(0.0479174 -0.0297181 0 0.0479174 0 0.0479174)
(0.0480352 -0.0297785 0 0.0480352 0 0.0480352)
(0.048153 -0.0298387 0 0.048153 0 0.048153)
(0.0482706 -0.0298988 0 0.0482706 0 0.0482706)
(0.0483882 -0.0299586 0 0.0483882 0 0.0483882)
(0.0485057 -0.0300183 0 0.0485057 0 0.0485057)
(0.0486232 -0.0300777 0 0.0486232 0 0.0486232)
(0.0487406 -0.0301369 0 0.0487406 0 0.0487406)
(0.0488579 -0.030196 0 0.0488579 0 0.0488579)
(0.0489751 -0.0302548 0 0.0489751 0 0.0489751)
(0.0490922 -0.0303134 0 0.0490922 0 0.0490922)
(0.0492092 -0.0303718 0 0.0492092 0 0.0492092)
(0.0493262 -0.0304301 0 0.0493262 0 0.0493262)
(0.049443 -0.0304882 0 0.049443 0 0.049443)
(0.0495598 -0.0305462 0 0.0495598 0 0.0495598)
(0.0496764 -0.0306041 0 0.0496764 0 0.0496764)
(0.0497929 -0.030662 0 0.0497929 0 0.0497929)
(0.0499094 -0.0307198 0 0.0499094 0 0.0499094)
(0.0500257 -0.0307784 0 0.0500257 0 0.0500257)
(0.050142 -0.0308367 0 0.050142 0 0.050142)
(0.0502581 -0.0308947 0 0.0502581 0 0.0502581)
(0.0503741 -0.0309522 0 0.0503741 0 0.0503741)
(0.05049 -0.0310085 0 0.05049 0 0.05049)
(0.0506057 -0.0310645 0 0.0506057 0 0.0506057)
(0.0507213 -0.0311202 0 0.0507213 0 0.0507213)
(0.0508368 -0.0311756 0 0.0508368 0 0.0508368)
(0.0509522 -0.0312307 0 0.0509522 0 0.0509522)
(0.0510674 -0.0312856 0 0.0510674 0 0.0510674)
(0.0511825 -0.0313402 0 0.0511825 0 0.0511825)
(0.0512975 -0.0313946 0 0.0512975 0 0.0512975)
(0.0514123 -0.0314487 0 0.0514123 0 0.0514123)
(0.0515269 -0.0315027 0 0.0515269 0 0.0515269)
(0.0516414 -0.0315563 0 0.0516414 0 0.0516414)
(0.0517558 -0.0316097 0 0.0517558 0 0.0517558)
(0.0518699 -0.0316629 0 0.0518699 0 0.0518699)
(0.051984 -0.0317159 0 0.051984 0 0.051984)
(0.0520978 -0.0317685 0 0.0520978 0 0.0520978)
(0.0522115 -0.031821 0 0.0522115 0 0.0522115)
(0.052325 -0.0318732 0 0.052325 0 0.052325)
(0.0524384 -0.0319251 0 0.0524384 0 0.0524384)
(0.0525515 -0.0319768 0 0.0525515 0 0.0525515)
(0.0526645 -0.0320282 0 0.0526645 0 0.0526645)
(0.0527773 -0.0320794 0 0.0527773 0 0.0527773)
(0.0528899 -0.0321303 0 0.0528899 0 0.0528899)
(0.0530023 -0.032181 0 0.0530023 0 0.0530023)
(0.0531145 -0.0322314 0 0.0531145 0 0.0531145)
(0.0532266 -0.0322815 0 0.0532266 0 0.0532266)
(0.0533384 -0.0323314 0 0.0533384 0 0.0533384)
(0.05345 -0.032381 0 0.05345 0 0.05345)
(0.0535614 -0.0324303 0 0.0535614 0 0.0535614)
(0.0536726 -0.0324794 0 0.0536726 0 0.0536726)
(0.0537836 -0.0325282 0 0.0537836 0 0.0537836)
(0.0538944 -0.0325768 0 0.0538944 0 0.0538944)
(0.0540049 -0.032625 0 0.0540049 0 0.0540049)
(0.0541153 -0.032673 0 0.0541153 0 0.0541153)
(0.0542254 -0.0327207 0 0.0542254 0 0.0542254)
(0.0543352 -0.0327682 0 0.0543352 0 0.0543352)
(0.0544449 -0.0328153 0 0.0544449 0 0.0544449)
(0.0545542 -0.0328622 0 0.0545542 0 0.0545542)
(0.0546634 -0.0329088 0 0.0546634 0 0.0546634)
(0.0547723 -0.0329551 0 0.0547723 0 0.0547723)
(0.054881 -0.0330011 0 0.054881 0 0.054881)
(0.0549894 -0.0330469 0 0.0549894 0 0.0549894)
(0.0550975 -0.0330924 0 0.0550975 0 0.0550975)
(0.0552053 -0.0331376 0 0.0552053 0 0.0552053)
(0.055313 -0.0331824 0 0.055313 0 0.055313)
(0.0554204 -0.033227 0 0.0554204 0 0.0554204)
(0.0555275 -0.0332713 0 0.0555275 0 0.0555275)
(0.0556342 -0.0333153 0 0.0556342 0 0.0556342)
(0.0557408 -0.033359 0 0.0557408 0 0.0557408)
(0.0558471 -0.0334023 0 0.0558471 0 0.0558471)
(0.0559532 -0.0334454 0 0.0559532 0 0.0559532)
(0.0560589 -0.0334882 0 0.0560589 0 0.0560589)
(0.0561642 -0.0335307 0 0.0561642 0 0.0561642)
(0.0562693 -0.0335729 0 0.0562693 0 0.0562693)
(0.0563741 -0.0336148 0 0.0563741 0 0.0563741)
(0.0564786 -0.0336564 0 0.0564786 0 0.0564786)
(0.0565827 -0.0336977 0 0.0565827 0 0.0565827)
(0.0566866 -0.0337386 0 0.0566866 0 0.0566866)
(0.0567903 -0.0337792 0 0.0567903 0 0.0567903)
(0.0568935 -0.0338195 0 0.0568935 0 0.0568935)
(0.0569965 -0.0338595 0 0.0569965 0 0.0569965)
(0.0570991 -0.0338992 0 0.0570991 0 0.0570991)
(0.0572013 -0.0339386 0 0.0572013 0 0.0572013)
(0.0573032 -0.0339777 0 0.0573032 0 0.0573032)
(0.0574049 -0.0340164 0 0.0574049 0 0.0574049)
(0.0575062 -0.0340548 0 0.0575062 0 0.0575062)
(0.0576071 -0.0340929 0 0.0576071 0 0.0576071)
(0.0577076 -0.0341307 0 0.0577076 0 0.0577076)
(0.0578079 -0.0341681 0 0.0578079 0 0.0578079)
(0.0579078 -0.0342052 0 0.0579078 0 0.0579078)
(0.0580072 -0.034242 0 0.0580072 0 0.0580072)
(0.0581064 -0.0342785 0 0.0581064 0 0.0581064)
(0.0582052 -0.0343146 0 0.0582052 0 0.0582052)
(0.0583036 -0.0343503 0 0.0583036 0 0.0583036)
(0.0584017 -0.0343857 0 0.0584017 0 0.0584017)
(0.0584994 -0.0344208 0 0.0584994 0 0.0584994)
(0.0585966 -0.0344556 0 0.0585966 0 0.0585966)
(0.0586935 -0.03449 0 0.0586935 0 0.0586935)
(0.0587901 -0.0345241 0 0.0587901 0 0.0587901)
(0.0588862 -0.0345578 0 0.0588862 0 0.0588862)
(0.0589819 -0.0345912 0 0.0589819 0 0.0589819)
(0.0590772 -0.0346242 0 0.0590772 0 0.0590772)
(0.0591722 -0.0346569 0 0.0591722 0 0.0591722)
(0.0592667 -0.0346892 0 0.0592667 0 0.0592667)
(0.0593607 -0.0347213 0 0.0593607 0 0.0593607)
(0.0594543 -0.0347529 0 0.0594543 0 0.0594543)
(0.0595476 -0.0347842 0 0.0595476 0 0.0595476)
(0.0596404 -0.0348151 0 0.0596404 0 0.0596404)
(0.0597328 -0.0348457 0 0.0597328 0 0.0597328)
(0.0598248 -0.0348759 0 0.0598248 0 0.0598248)
(0.0599163 -0.0349057 0 0.0599163 0 0.0599163)
(0.0600074 -0.0349352 0 0.0600074 0 0.0600074)
(0.0600981 -0.0349642 0 0.0600981 0 0.0600981)
(0.0601883 -0.034993 0 0.0601883 0 0.0601883)
(0.060278 -0.0350214 0 0.060278 0 0.060278)
(0.0603673 -0.0350494 0 0.0603673 0 0.0603673)
(0.0604561 -0.035077 0 0.0604561 0 0.0604561)
(0.0605444 -0.0351043 0 0.0605444 0 0.0605444)