/*--------------------------------*- C++ -*----------------------------------*\
| =========                 |                                                 |
| \\      /  F ield         | OpenFOAM: The Open Source CFD Toolbox           |
|  \\    /   O peration     | Version:  v1806                                 |
|   \\  /    A nd           | Web:      www.OpenFOAM.com                      |
|    \\/     M anipulation  |                                                 |
\*---------------------------------------------------------------------------*/
FoamFile
{
    version     2.0;
    format      ascii;
    class       volVectorField;
    location    "10000";
    object      U;
}
// * * * * * * * * * * * * * * * * * * * * * * * * * * * * * * * * * * * * * //

dimensions      [0 1 -1 0 0 0 0];


internalField   nonuniform List<vector> 
1025
(
(0.000530542 -1.9215e-16 0)
(0.00159348 -4.21202e-16 0)
(0.0026608 -4.0816e-16 0)
(0.00373257 -3.88093e-16 0)
(0.00480883 -3.83217e-16 0)
(0.00588966 -3.84262e-16 0)
(0.00697509 -3.84878e-16 0)
(0.00806518 -3.84833e-16 0)
(0.00915994 -3.847e-16 0)
(0.0102594 -3.84635e-16 0)
(0.0113637 -3.84605e-16 0)
(0.0124727 -3.84585e-16 0)
(0.0135865 -3.84567e-16 0)
(0.014705 -3.84551e-16 0)
(0.0158284 -3.84539e-16 0)
(0.0169565 -3.84531e-16 0)
(0.0180894 -3.84524e-16 0)
(0.019227 -3.8452e-16 0)
(0.0203691 -3.84518e-16 0)
(0.0215158 -3.84514e-16 0)
(0.0226669 -3.84513e-16 0)
(0.0238222 -3.84512e-16 0)
(0.0249816 -3.84513e-16 0)
(0.0261448 -3.84513e-16 0)
(0.0273115 -3.84516e-16 0)
(0.0284814 -3.84516e-16 0)
(0.029654 -3.84518e-16 0)
(0.0308289 -3.84514e-16 0)
(0.0320054 -3.84518e-16 0)
(0.0331829 -3.84513e-16 0)
(0.0343606 -3.84508e-16 0)
(0.0355374 -3.84513e-16 0)
(0.0367125 -3.84503e-16 0)
(0.0378848 -3.84502e-16 0)
(0.0390529 -3.84501e-16 0)
(0.0402154 -3.84502e-16 0)
(0.0413708 -3.84504e-16 0)
(0.0425176 -3.845e-16 0)
(0.0436544 -3.84498e-16 0)
(0.0447795 -3.84503e-16 0)
(0.0458911 -3.84502e-16 0)
(0.0469878 -3.845e-16 0)
(0.0480682 -3.84498e-16 0)
(0.0491309 -3.84498e-16 0)
(0.0501746 -3.845e-16 0)
(0.0511983 -3.84493e-16 0)
(0.0522011 -3.84493e-16 0)
(0.0531821 -3.84495e-16 0)
(0.0541407 -3.84492e-16 0)
(0.0550767 -3.84491e-16 0)
(0.0559897 -3.8449e-16 0)
(0.0568795 -3.84495e-16 0)
(0.0577461 -3.84487e-16 0)
(0.0585897 -3.84494e-16 0)
(0.0594105 -3.84486e-16 0)
(0.0602089 -3.84484e-16 0)
(0.0609852 -3.8449e-16 0)
(0.0617398 -3.84497e-16 0)
(0.0624734 -3.84495e-16 0)
(0.0631865 -3.84491e-16 0)
(0.0638798 -3.84488e-16 0)
(0.064554 -3.84485e-16 0)
(0.0652097 -3.84487e-16 0)
(0.0658476 -3.8449e-16 0)
(0.0664684 -3.84486e-16 0)
(0.067073 -3.84494e-16 0)
(0.0676619 -3.84495e-16 0)
(0.068236 -3.845e-16 0)
(0.0687958 -3.84488e-16 0)
(0.0693422 -3.84488e-16 0)
(0.0698758 -3.84474e-16 0)
(0.0703971 -3.84475e-16 0)
(0.0709069 -3.84468e-16 0)
(0.0714059 -3.84469e-16 0)
(0.0718944 -3.84478e-16 0)
(0.0723732 -3.84466e-16 0)
(0.0728428 -3.84472e-16 0)
(0.0733037 -3.84466e-16 0)
(0.0737564 -3.84474e-16 0)
(0.0742013 -3.84468e-16 0)
(0.0746389 -3.84474e-16 0)
(0.0750697 -3.84462e-16 0)
(0.075494 -3.84474e-16 0)
(0.0759122 -3.84466e-16 0)
(0.0763247 -3.84471e-16 0)
(0.0767319 -3.84471e-16 0)
(0.077134 -3.84472e-16 0)
(0.0775314 -3.84472e-16 0)
(0.0779244 -3.84467e-16 0)
(0.0783133 -3.8447e-16 0)
(0.0786983 -3.84474e-16 0)
(0.0790797 -3.84473e-16 0)
(0.0794577 -3.84474e-16 0)
(0.0798326 -3.84475e-16 0)
(0.0802046 -3.84477e-16 0)
(0.0805738 -3.84467e-16 0)
(0.0809406 -3.84468e-16 0)
(0.0813049 -3.84458e-16 0)
(0.0816672 -3.84453e-16 0)
(0.0820274 -3.84456e-16 0)
(0.0823859 -3.84457e-16 0)
(0.0827426 -3.84462e-16 0)
(0.0830979 -3.8446e-16 0)
(0.0834517 -3.8447e-16 0)
(0.0838043 -3.84461e-16 0)
(0.0841558 -3.84471e-16 0)
(0.0845063 -3.84464e-16 0)
(0.0848559 -3.8445e-16 0)
(0.0852047 -3.84451e-16 0)
(0.0855529 -3.84446e-16 0)
(0.0859005 -3.84435e-16 0)
(0.0862476 -3.84437e-16 0)
(0.0865944 -3.84423e-16 0)
(0.0869409 -3.84427e-16 0)
(0.0872872 -3.84431e-16 0)
(0.0876334 -3.84433e-16 0)
(0.0879795 -3.84434e-16 0)
(0.0883257 -3.84431e-16 0)
(0.088672 -3.84427e-16 0)
(0.0890185 -3.84427e-16 0)
(0.0893652 -3.84421e-16 0)
(0.0897123 -3.84418e-16 0)
(0.0900598 -3.84415e-16 0)
(0.0904077 -3.84417e-16 0)
(0.0907561 -3.84416e-16 0)
(0.0911051 -3.84416e-16 0)
(0.0914547 -3.84412e-16 0)
(0.091805 -3.84407e-16 0)
(0.092156 -3.84398e-16 0)
(0.0925078 -3.84399e-16 0)
(0.0928603 -3.84403e-16 0)
(0.0932138 -3.84396e-16 0)
(0.0935681 -3.84388e-16 0)
(0.0939235 -3.8439e-16 0)
(0.0942798 -3.84385e-16 0)
(0.0946371 -3.84388e-16 0)
(0.0949955 -3.84391e-16 0)
(0.095355 -3.84383e-16 0)
(0.0957157 -3.84384e-16 0)
(0.0960776 -3.84382e-16 0)
(0.0964406 -3.84389e-16 0)
(0.096805 -3.8439e-16 0)
(0.0971706 -3.84393e-16 0)
(0.0975376 -3.84398e-16 0)
(0.0979059 -3.84395e-16 0)
(0.0982755 -3.84391e-16 0)
(0.0986466 -3.84387e-16 0)
(0.0990191 -3.8438e-16 0)
(0.0993931 -3.84368e-16 0)
(0.0997686 -3.84365e-16 0)
(0.100146 -3.84354e-16 0)
(0.100524 -3.84354e-16 0)
(0.100904 -3.8435e-16 0)
(0.101286 -3.84346e-16 0)
(0.101669 -3.84351e-16 0)
(0.102054 -3.84356e-16 0)
(0.102441 -3.84355e-16 0)
(0.102829 -3.84359e-16 0)
(0.103219 -3.84359e-16 0)
(0.103611 -3.8437e-16 0)
(0.104004 -3.84366e-16 0)
(0.1044 -3.84359e-16 0)
(0.104797 -3.84358e-16 0)
(0.105196 -3.84364e-16 0)
(0.105596 -3.84361e-16 0)
(0.105999 -3.84363e-16 0)
(0.106403 -3.84365e-16 0)
(0.106809 -3.84361e-16 0)
(0.107218 -3.84355e-16 0)
(0.107628 -3.84365e-16 0)
(0.108039 -3.84345e-16 0)
(0.108454 -3.84304e-16 0)
(0.10887 -3.84339e-16 0)
(0.109287 -3.84327e-16 0)
(0.109707 -3.84329e-16 0)
(0.110129 -3.84304e-16 0)
(0.110553 -3.84363e-16 0)
(0.110979 -3.84337e-16 0)
(0.111407 -3.84357e-16 0)
(0.111837 -3.8436e-16 0)
(0.112269 -3.84366e-16 0)
(0.112703 -3.84393e-16 0)
(0.113139 -3.84375e-16 0)
(0.113578 -3.84398e-16 0)
(0.114018 -3.84413e-16 0)
(0.114461 -3.84386e-16 0)
(0.114906 -3.84401e-16 0)
(0.115353 -3.84407e-16 0)
(0.115801 -3.84423e-16 0)
(0.116253 -3.84405e-16 0)
(0.116706 -3.84386e-16 0)
(0.117162 -3.84443e-16 0)
(0.11762 -3.84377e-16 0)
(0.11808 -3.84434e-16 0)
(0.118542 -3.84375e-16 0)
(0.119007 -3.84434e-16 0)
(0.119473 -3.84379e-16 0)
(0.119942 -3.84441e-16 0)
(0.120414 -3.84382e-16 0)
(0.120888 -3.84407e-16 0)
(0.121363 -3.84438e-16 0)
(0.121841 -3.84431e-16 0)
(0.122322 -3.8443e-16 0)
(0.122805 -3.84414e-16 0)
(0.12329 -3.84429e-16 0)
(0.123777 -3.84401e-16 0)
(0.124267 -3.8438e-16 0)
(0.124759 -3.84423e-16 0)
(0.125253 -3.84394e-16 0)
(0.12575 -3.8443e-16 0)
(0.12625 -3.84415e-16 0)
(0.126751 -3.84387e-16 0)
(0.127255 -3.84398e-16 0)
(0.127761 -3.8435e-16 0)
(0.12827 -3.84337e-16 0)
(0.128781 -3.84363e-16 0)
(0.129294 -3.84362e-16 0)
(0.12981 -3.84328e-16 0)
(0.130329 -3.84371e-16 0)
(0.130849 -3.84334e-16 0)
(0.131373 -3.84302e-16 0)
(0.131898 -3.84302e-16 0)
(0.132426 -3.84259e-16 0)
(0.132957 -3.84261e-16 0)
(0.13349 -3.84256e-16 0)
(0.134025 -3.84226e-16 0)
(0.134563 -3.84276e-16 0)
(0.135104 -3.84266e-16 0)
(0.135647 -3.84282e-16 0)
(0.136192 -3.84239e-16 0)
(0.13674 -3.84269e-16 0)
(0.13729 -3.84246e-16 0)
(0.137843 -3.84212e-16 0)
(0.138399 -3.84203e-16 0)
(0.138957 -3.84202e-16 0)
(0.139517 -3.84207e-16 0)
(0.14008 -3.84184e-16 0)
(0.140645 -3.84174e-16 0)
(0.141213 -3.84196e-16 0)
(0.141784 -3.8416e-16 0)
(0.142357 -3.84135e-16 0)
(0.142932 -3.84098e-16 0)
(0.143511 -3.84114e-16 0)
(0.144091 -3.84082e-16 0)
(0.144675 -3.84144e-16 0)
(0.14526 -3.84113e-16 0)
(0.145849 -3.84148e-16 0)
(0.14644 -3.8414e-16 0)
(0.147033 -3.84131e-16 0)
(0.147629 -3.84148e-16 0)
(0.148228 -3.84111e-16 0)
(0.14883 -3.84136e-16 0)
(0.149433 -3.84128e-16 0)
(0.15004 -3.84131e-16 0)
(0.150649 -3.84101e-16 0)
(0.151261 -3.84119e-16 0)
(0.151875 -3.8412e-16 0)
(0.152492 -3.84111e-16 0)
(0.153112 -3.84083e-16 0)
(0.153734 -3.84064e-16 0)
(0.154359 -3.83997e-16 0)
(0.154986 -3.839e-16 0)
(0.155616 -3.83893e-16 0)
(0.156249 -3.83892e-16 0)
(0.156884 -3.83914e-16 0)
(0.157522 -3.8394e-16 0)
(0.158163 -3.83914e-16 0)
(0.158806 -3.83919e-16 0)
(0.159452 -3.8392e-16 0)
(0.1601 -3.83898e-16 0)
(0.160752 -3.83908e-16 0)
(0.161406 -3.83888e-16 0)
(0.162062 -3.83897e-16 0)
(0.162721 -3.83878e-16 0)
(0.163383 -3.83843e-16 0)
(0.164048 -3.83837e-16 0)
(0.164715 -3.83843e-16 0)
(0.165385 -3.83838e-16 0)
(0.166057 -3.83828e-16 0)
(0.166733 -3.8381e-16 0)
(0.167411 -3.83748e-16 0)
(0.168091 -3.83697e-16 0)
(0.168775 -3.8367e-16 0)
(0.169461 -3.83669e-16 0)
(0.17015 -3.83652e-16 0)
(0.170841 -3.83634e-16 0)
(0.171535 -3.83626e-16 0)
(0.172232 -3.83643e-16 0)
(0.172932 -3.83652e-16 0)
(0.173634 -3.83645e-16 0)
(0.174339 -3.83638e-16 0)
(0.175047 -3.83642e-16 0)
(0.175757 -3.83648e-16 0)
(0.17647 -3.83636e-16 0)
(0.177186 -3.83676e-16 0)
(0.177905 -3.83663e-16 0)
(0.178626 -3.8367e-16 0)
(0.17935 -3.83655e-16 0)
(0.180077 -3.83613e-16 0)
(0.180807 -3.83615e-16 0)
(0.181539 -3.83618e-16 0)
(0.182274 -3.83601e-16 0)
(0.183012 -3.83611e-16 0)
(0.183753 -3.83595e-16 0)
(0.184496 -3.83597e-16 0)
(0.185242 -3.8357e-16 0)
(0.185991 -3.83594e-16 0)
(0.186743 -3.83606e-16 0)
(0.187497 -3.83595e-16 0)
(0.188254 -3.83596e-16 0)
(0.189014 -3.83574e-16 0)
(0.189777 -3.8358e-16 0)
(0.190542 -3.83585e-16 0)
(0.19131 -3.83595e-16 0)
(0.192081 -3.83568e-16 0)
(0.192855 -3.83593e-16 0)
(0.193632 -3.83605e-16 0)
(0.194411 -3.83581e-16 0)
(0.195193 -3.83598e-16 0)
(0.195978 -3.83596e-16 0)
(0.196766 -3.83665e-16 0)
(0.197556 -3.83671e-16 0)
(0.19835 -3.83651e-16 0)
(0.199146 -3.83629e-16 0)
(0.199944 -3.83626e-16 0)
(0.200746 -3.83647e-16 0)
(0.201551 -3.83696e-16 0)
(0.202358 -3.83719e-16 0)
(0.203168 -3.8372e-16 0)
(0.203981 -3.83697e-16 0)
(0.204797 -3.83714e-16 0)
(0.205615 -3.83689e-16 0)
(0.206437 -3.83675e-16 0)
(0.207261 -3.83662e-16 0)
(0.208088 -3.83665e-16 0)
(0.208917 -3.83628e-16 0)
(0.20975 -3.83596e-16 0)
(0.210586 -3.83651e-16 0)
(0.211424 -3.83668e-16 0)
(0.212265 -3.83653e-16 0)
(0.213109 -3.8361e-16 0)
(0.213956 -3.83626e-16 0)
(0.214806 -3.83635e-16 0)
(0.215658 -3.83638e-16 0)
(0.216513 -3.8366e-16 0)
(0.217371 -3.83664e-16 0)
(0.218233 -3.83621e-16 0)
(0.219096 -3.83613e-16 0)
(0.219963 -3.83582e-16 0)
(0.220833 -3.8357e-16 0)
(0.221705 -3.83569e-16 0)
(0.222581 -3.83586e-16 0)
(0.223459 -3.83575e-16 0)
(0.22434 -3.83565e-16 0)
(0.225224 -3.83587e-16 0)
(0.22611 -3.83594e-16 0)
(0.227 -3.83588e-16 0)
(0.227893 -3.83582e-16 0)
(0.228788 -3.83551e-16 0)
(0.229686 -3.83581e-16 0)
(0.230587 -3.83588e-16 0)
(0.231491 -3.8367e-16 0)
(0.232398 -3.83734e-16 0)
(0.233308 -3.83732e-16 0)
(0.234221 -3.83726e-16 0)
(0.235136 -3.83723e-16 0)
(0.236055 -3.83711e-16 0)
(0.236976 -3.83657e-16 0)
(0.2379 -3.83589e-16 0)
(0.238827 -3.83576e-16 0)
(0.239757 -3.83546e-16 0)
(0.24069 -3.83531e-16 0)
(0.241626 -3.83497e-16 0)
(0.242565 -3.83512e-16 0)
(0.243507 -3.83539e-16 0)
(0.244451 -3.83571e-16 0)
(0.245399 -3.83591e-16 0)
(0.246349 -3.83542e-16 0)
(0.247302 -3.83515e-16 0)
(0.248259 -3.83536e-16 0)
(0.249218 -3.83488e-16 0)
(0.25018 -3.83436e-16 0)
(0.251145 -3.83444e-16 0)
(0.252113 -3.83435e-16 0)
(0.253084 -3.83484e-16 0)
(0.254058 -3.83506e-16 0)
(0.255034 -3.83488e-16 0)
(0.256014 -3.83461e-16 0)
(0.256997 -3.83431e-16 0)
(0.257982 -3.83433e-16 0)
(0.258971 -3.83488e-16 0)
(0.259962 -3.83505e-16 0)
(0.260957 -3.83515e-16 0)
(0.261954 -3.83536e-16 0)
(0.262955 -3.83482e-16 0)
(0.263958 -3.83443e-16 0)
(0.264964 -3.83459e-16 0)
(0.265973 -3.83426e-16 0)
(0.266985 -3.83449e-16 0)
(0.268001 -3.83491e-16 0)
(0.269019 -3.83605e-16 0)
(0.27004 -3.83686e-16 0)
(0.271064 -3.83722e-16 0)
(0.272091 -3.83747e-16 0)
(0.273121 -3.83797e-16 0)
(0.274154 -3.83819e-16 0)
(0.27519 -3.83782e-16 0)
(0.276229 -3.83751e-16 0)
(0.277271 -3.83754e-16 0)
(0.278316 -3.83786e-16 0)
(0.279364 -3.83797e-16 0)
(0.280415 -3.83792e-16 0)
(0.281469 -3.83793e-16 0)
(0.282526 -3.83695e-16 0)
(0.283586 -3.83596e-16 0)
(0.284649 -3.83579e-16 0)
(0.285715 -3.83567e-16 0)
(0.286784 -3.83566e-16 0)
(0.287856 -3.83572e-16 0)
(0.288931 -3.83578e-16 0)
(0.290009 -3.83521e-16 0)
(0.29109 -3.83483e-16 0)
(0.292174 -3.83413e-16 0)
(0.293261 -3.83438e-16 0)
(0.294351 -3.83525e-16 0)
(0.295444 -3.83503e-16 0)
(0.296541 -3.83395e-16 0)
(0.29764 -3.83269e-16 0)
(0.298742 -3.83213e-16 0)
(0.299848 -3.83174e-16 0)
(0.300956 -3.83141e-16 0)
(0.302067 -3.83089e-16 0)
(0.303182 -3.83069e-16 0)
(0.304299 -3.83067e-16 0)
(0.30542 -3.83033e-16 0)
(0.306543 -3.83016e-16 0)
(0.30767 -3.82956e-16 0)
(0.3088 -3.82937e-16 0)
(0.309933 -3.8289e-16 0)
(0.311069 -3.82816e-16 0)
(0.312208 -3.82818e-16 0)
(0.31335 -3.82771e-16 0)
(0.314495 -3.82693e-16 0)
(0.315643 -3.82653e-16 0)
(0.316794 -3.82684e-16 0)
(0.317949 -3.82664e-16 0)
(0.319106 -3.82637e-16 0)
(0.320267 -3.82671e-16 0)
(0.32143 -3.82675e-16 0)
(0.322597 -3.82631e-16 0)
(0.323767 -3.82545e-16 0)
(0.32494 -3.8245e-16 0)
(0.326116 -3.82463e-16 0)
(0.327295 -3.82393e-16 0)
(0.328477 -3.82248e-16 0)
(0.329663 -3.82201e-16 0)
(0.330851 -3.82373e-16 0)
(0.332042 -3.82515e-16 0)
(0.333237 -3.8251e-16 0)
(0.334435 -3.82381e-16 0)
(0.335636 -3.82271e-16 0)
(0.33684 -3.82273e-16 0)
(0.338047 -3.82157e-16 0)
(0.339258 -3.81957e-16 0)
(0.340471 -3.81879e-16 0)
(0.341688 -3.81901e-16 0)
(0.342908 -3.81903e-16 0)
(0.344131 -3.81825e-16 0)
(0.345357 -3.81634e-16 0)
(0.346586 -3.81474e-16 0)
(0.347818 -3.81465e-16 0)
(0.349054 -3.81415e-16 0)
(0.350293 -3.81256e-16 0)
(0.351534 -3.81146e-16 0)
(0.35278 -3.81045e-16 0)
(0.354028 -3.81015e-16 0)
(0.355279 -3.81e-16 0)
(0.356533 -3.8093e-16 0)
(0.357791 -3.808e-16 0)
(0.359052 -3.80827e-16 0)
(0.360316 -3.81029e-16 0)
(0.361583 -3.81184e-16 0)
(0.362854 -3.81171e-16 0)
(0.364127 -3.81223e-16 0)
(0.365404 -3.81294e-16 0)
(0.366684 -3.81247e-16 0)
(0.367967 -3.81187e-16 0)
(0.369254 -3.81063e-16 0)
(0.370543 -3.81059e-16 0)
(0.371836 -3.81097e-16 0)
(0.373132 -3.81043e-16 0)
(0.374432 -3.80918e-16 0)
(0.375734 -3.80663e-16 0)
(0.37704 -3.80459e-16 0)
(0.378349 -3.80455e-16 0)
(0.379661 -3.80481e-16 0)
(0.380976 -3.80472e-16 0)
(0.382295 -3.80513e-16 0)
(0.383616 -3.8057e-16 0)
(0.384941 -3.80591e-16 0)
(0.38627 -3.80815e-16 0)
(0.387601 -3.81125e-16 0)
(0.388936 -3.81283e-16 0)
(0.390274 -3.81336e-16 0)
(0.391615 -3.8137e-16 0)
(0.39296 -3.81399e-16 0)
(0.394308 -3.81419e-16 0)
(0.395659 -3.8153e-16 0)
(0.397013 -3.81612e-16 0)
(0.398371 -3.81605e-16 0)
(0.399732 -3.81877e-16 0)
(0.401096 -3.82144e-16 0)
(0.402463 -3.81946e-16 0)
(0.403834 -3.81834e-16 0)
(0.405208 -3.81781e-16 0)
(0.406586 -3.81578e-16 0)
(0.407967 -3.81506e-16 0)
(0.409351 -3.81352e-16 0)
(0.410738 -3.81053e-16 0)
(0.412129 -3.80874e-16 0)
(0.413523 -3.80783e-16 0)
(0.41492 -3.80524e-16 0)
(0.416321 -3.80329e-16 0)
(0.417725 -3.80218e-16 0)
(0.419132 -3.79853e-16 0)
(0.420543 -3.79528e-16 0)
(0.421956 -3.79292e-16 0)
(0.423373 -3.78872e-16 0)
(0.424794 -3.78728e-16 0)
(0.426218 -3.78939e-16 0)
(0.427645 -3.7907e-16 0)
(0.429075 -3.79045e-16 0)
(0.430509 -3.79008e-16 0)
(0.431946 -3.78962e-16 0)
(0.433386 -3.79029e-16 0)
(0.43483 -3.79087e-16 0)
(0.436277 -3.7904e-16 0)
(0.437727 -3.78947e-16 0)
(0.439181 -3.78848e-16 0)
(0.440638 -3.78639e-16 0)
(0.442098 -3.78462e-16 0)
(0.443562 -3.78631e-16 0)
(0.445029 -3.78823e-16 0)
(0.4465 -3.7881e-16 0)
(0.447974 -3.78838e-16 0)
(0.449451 -3.7876e-16 0)
(0.450931 -3.78563e-16 0)
(0.452415 -3.78496e-16 0)
(0.453902 -3.78487e-16 0)
(0.455393 -3.78548e-16 0)
(0.456887 -3.78904e-16 0)
(0.458384 -3.79253e-16 0)
(0.459884 -3.79177e-16 0)
(0.461388 -3.79116e-16 0)
(0.462896 -3.7904e-16 0)
(0.464407 -3.79001e-16 0)
(0.465921 -3.78996e-16 0)
(0.467438 -3.7875e-16 0)
(0.468959 -3.78386e-16 0)
(0.470485 -3.78297e-16 0)
(0.472012 -3.78321e-16 0)
(0.473542 -3.78309e-16 0)
(0.475077 -3.78329e-16 0)
(0.476616 -3.78214e-16 0)
(0.478158 -3.77593e-16 0)
(0.479703 -3.76892e-16 0)
(0.48125 -3.76624e-16 0)
(0.482801 -3.76691e-16 0)
(0.484357 -3.7695e-16 0)
(0.485915 -3.7707e-16 0)
(0.487476 -3.77059e-16 0)
(0.489041 -3.76949e-16 0)
(0.49061 -3.76551e-16 0)
(0.492183 -3.76205e-16 0)
(0.493759 -3.76097e-16 0)
(0.495337 -3.7607e-16 0)
(0.496918 -3.75826e-16 0)
(0.498504 -3.75525e-16 0)
(0.500094 -3.75084e-16 0)
(0.501686 -3.74653e-16 0)
(0.503282 -3.74153e-16 0)
(0.504881 -3.73701e-16 0)
(0.506485 -3.73528e-16 0)
(0.508091 -3.73446e-16 0)
(0.5097 -3.73058e-16 0)
(0.511312 -3.72683e-16 0)
(0.512929 -3.72747e-16 0)
(0.51455 -3.73001e-16 0)
(0.516174 -3.73069e-16 0)
(0.517801 -3.72613e-16 0)
(0.51943 -3.71555e-16 0)
(0.521064 -3.71004e-16 0)
(0.522702 -3.71321e-16 0)
(0.524343 -3.71498e-16 0)
(0.525987 -3.71408e-16 0)
(0.527634 -3.71738e-16 0)
(0.529286 -3.71855e-16 0)
(0.53094 -3.71051e-16 0)
(0.532597 -3.70335e-16 0)
(0.534258 -3.69472e-16 0)
(0.535923 -3.69234e-16 0)
(0.537591 -3.69888e-16 0)
(0.539263 -3.70271e-16 0)
(0.540938 -3.70451e-16 0)
(0.542616 -3.70408e-16 0)
(0.544299 -3.70518e-16 0)
(0.545985 -3.71025e-16 0)
(0.547675 -3.71064e-16 0)
(0.549367 -3.71059e-16 0)
(0.551062 -3.71045e-16 0)
(0.552762 -3.71255e-16 0)
(0.554465 -3.71232e-16 0)
(0.556171 -3.70965e-16 0)
(0.557881 -3.70579e-16 0)
(0.559594 -3.70126e-16 0)
(0.56131 -3.69931e-16 0)
(0.563031 -3.69771e-16 0)
(0.564755 -3.69456e-16 0)
(0.566482 -3.69127e-16 0)
(0.568212 -3.68865e-16 0)
(0.569947 -3.68454e-16 0)
(0.571684 -3.68361e-16 0)
(0.573424 -3.68476e-16 0)
(0.575169 -3.68562e-16 0)
(0.576918 -3.68478e-16 0)
(0.578669 -3.67793e-16 0)
(0.580424 -3.67035e-16 0)
(0.582183 -3.66608e-16 0)
(0.583944 -3.66384e-16 0)
(0.585708 -3.66366e-16 0)
(0.587478 -3.66638e-16 0)
(0.58925 -3.66829e-16 0)
(0.591026 -3.6741e-16 0)
(0.592804 -3.68155e-16 0)
(0.594587 -3.68283e-16 0)
(0.596374 -3.68615e-16 0)
(0.598163 -3.68983e-16 0)
(0.599956 -3.68975e-16 0)
(0.601753 -3.68653e-16 0)
(0.603553 -3.68344e-16 0)
(0.605357 -3.68234e-16 0)
(0.607164 -3.68227e-16 0)
(0.608973 -3.68198e-16 0)
(0.610786 -3.68017e-16 0)
(0.612603 -3.67949e-16 0)
(0.614424 -3.68289e-16 0)
(0.616248 -3.68392e-16 0)
(0.618076 -3.68266e-16 0)
(0.619908 -3.67739e-16 0)
(0.621742 -3.67243e-16 0)
(0.62358 -3.67268e-16 0)
(0.625421 -3.66566e-16 0)
(0.627266 -3.65747e-16 0)
(0.629115 -3.65686e-16 0)
(0.630966 -3.66113e-16 0)
(0.632821 -3.66245e-16 0)
(0.63468 -3.65797e-16 0)
(0.636542 -3.65565e-16 0)
(0.638408 -3.65552e-16 0)
(0.640276 -3.65565e-16 0)
(0.642148 -3.65143e-16 0)
(0.644024 -3.64894e-16 0)
(0.645904 -3.64759e-16 0)
(0.647786 -3.6385e-16 0)
(0.649672 -3.62876e-16 0)
(0.651562 -3.62644e-16 0)
(0.653454 -3.62527e-16 0)
(0.655351 -3.62027e-16 0)
(0.657251 -3.61372e-16 0)
(0.659153 -3.60766e-16 0)
(0.66106 -3.60177e-16 0)
(0.66297 -3.5909e-16 0)
(0.664883 -3.58496e-16 0)
(0.6668 -3.58252e-16 0)
(0.66872 -3.5714e-16 0)
(0.670644 -3.55973e-16 0)
(0.672571 -3.55559e-16 0)
(0.674502 -3.55666e-16 0)
(0.676435 -3.55637e-16 0)
(0.678371 -3.558e-16 0)
(0.680311 -3.55161e-16 0)
(0.682255 -3.54074e-16 0)
(0.684203 -3.53954e-16 0)
(0.686154 -3.53831e-16 0)
(0.688107 -3.53661e-16 0)
(0.690064 -3.54466e-16 0)
(0.692025 -3.54411e-16 0)
(0.693988 -3.53274e-16 0)
(0.695955 -3.53053e-16 0)
(0.697926 -3.5294e-16 0)
(0.699901 -3.52256e-16 0)
(0.701878 -3.51751e-16 0)
(0.703858 -3.51908e-16 0)
(0.705842 -3.51885e-16 0)
(0.707829 -3.51033e-16 0)
(0.70982 -3.50093e-16 0)
(0.711814 -3.4975e-16 0)
(0.713811 -3.49701e-16 0)
(0.715811 -3.49724e-16 0)
(0.717815 -3.49671e-16 0)
(0.719822 -3.49869e-16 0)
(0.721831 -3.50145e-16 0)
(0.723845 -3.50427e-16 0)
(0.725863 -3.50604e-16 0)
(0.727883 -3.50294e-16 0)
(0.729906 -3.49496e-16 0)
(0.731932 -3.4852e-16 0)
(0.733962 -3.47845e-16 0)
(0.735995 -3.48252e-16 0)
(0.738031 -3.49164e-16 0)
(0.74007 -3.49527e-16 0)
(0.742113 -3.48948e-16 0)
(0.744158 -3.47596e-16 0)
(0.746206 -3.46491e-16 0)
(0.748259 -3.45415e-16 0)
(0.750315 -3.44331e-16 0)
(0.752373 -3.42892e-16 0)
(0.754435 -3.41101e-16 0)
(0.756499 -3.4044e-16 0)
(0.758567 -3.40424e-16 0)
(0.760638 -3.40382e-16 0)
(0.762713 -3.40355e-16 0)
(0.76479 -3.40545e-16 0)
(0.766869 -3.39892e-16 0)
(0.768953 -3.38706e-16 0)
(0.77104 -3.38366e-16 0)
(0.77313 -3.3869e-16 0)
(0.775222 -3.38451e-16 0)
(0.777318 -3.37743e-16 0)
(0.779418 -3.37715e-16 0)
(0.781519 -3.3803e-16 0)
(0.783624 -3.3848e-16 0)
(0.785732 -3.38739e-16 0)
(0.787843 -3.37957e-16 0)
(0.789957 -3.36199e-16 0)
(0.792074 -3.34823e-16 0)
(0.794194 -3.34444e-16 0)
(0.796317 -3.34517e-16 0)
(0.798443 -3.34266e-16 0)
(0.800572 -3.34264e-16 0)
(0.802703 -3.34239e-16 0)
(0.804838 -3.33463e-16 0)
(0.806976 -3.32124e-16 0)
(0.809117 -3.29962e-16 0)
(0.81126 -3.28562e-16 0)
(0.813406 -3.28756e-16 0)
(0.815555 -3.2928e-16 0)
(0.817707 -3.2921e-16 0)
(0.819862 -3.2905e-16 0)
(0.82202 -3.29767e-16 0)
(0.824179 -3.29637e-16 0)
(0.826343 -3.28523e-16 0)
(0.828509 -3.27181e-16 0)
(0.830678 -3.26447e-16 0)
(0.832849 -3.25807e-16 0)
(0.835024 -3.25255e-16 0)
(0.837201 -3.25119e-16 0)
(0.83938 -3.25127e-16 0)
(0.841563 -3.25143e-16 0)
(0.843748 -3.24978e-16 0)
(0.845936 -3.25214e-16 0)
(0.848126 -3.2525e-16 0)
(0.850318 -3.25433e-16 0)
(0.852514 -3.25256e-16 0)
(0.854712 -3.24794e-16 0)
(0.856913 -3.23831e-16 0)
(0.859117 -3.22746e-16 0)
(0.861322 -3.22101e-16 0)
(0.863531 -3.21919e-16 0)
(0.865742 -3.21727e-16 0)
(0.867956 -3.21999e-16 0)
(0.870171 -3.22449e-16 0)
(0.872389 -3.22434e-16 0)
(0.87461 -3.21815e-16 0)
(0.876833 -3.20012e-16 0)
(0.879059 -3.18231e-16 0)
(0.881287 -3.17634e-16 0)
(0.883517 -3.18857e-16 0)
(0.88575 -3.18532e-16 0)
(0.887984 -3.16669e-16 0)
(0.890221 -3.16116e-16 0)
(0.892461 -3.16537e-16 0)
(0.894702 -3.17263e-16 0)
(0.896946 -3.17733e-16 0)
(0.899193 -3.17314e-16 0)
(0.901441 -3.16503e-16 0)
(0.903691 -3.15893e-16 0)
(0.905944 -3.15963e-16 0)
(0.908199 -3.17213e-16 0)
(0.910455 -3.18939e-16 0)
(0.912714 -3.19184e-16 0)
(0.914975 -3.18938e-16 0)
(0.917237 -3.18325e-16 0)
(0.919503 -3.16508e-16 0)
(0.92177 -3.15542e-16 0)
(0.924038 -3.1579e-16 0)
(0.926309 -3.15574e-16 0)
(0.928581 -3.14027e-16 0)
(0.930856 -3.1417e-16 0)
(0.933131 -3.14731e-16 0)
(0.93541 -3.13185e-16 0)
(0.937689 -3.11665e-16 0)
(0.939971 -3.09037e-16 0)
(0.942254 -3.07104e-16 0)
(0.944539 -3.07722e-16 0)
(0.946825 -3.08412e-16 0)
(0.949113 -3.07346e-16 0)
(0.951402 -3.05597e-16 0)
(0.953693 -3.0473e-16 0)
(0.955986 -3.04298e-16 0)
(0.95828 -3.04222e-16 0)
(0.960575 -3.02013e-16 0)
(0.962872 -3.0018e-16 0)
(0.965171 -3.0036e-16 0)
(0.96747 -3.00306e-16 0)
(0.969771 -2.99447e-16 0)
(0.972073 -2.9814e-16 0)
(0.974377 -2.9986e-16 0)
(0.976682 -3.02014e-16 0)
(0.978988 -3.01957e-16 0)
(0.981294 -3.01606e-16 0)
(0.983602 -3.01064e-16 0)
(0.985911 -3.00786e-16 0)
(0.988221 -3.01156e-16 0)
(0.990532 -3.01858e-16 0)
(0.992843 -3.0197e-16 0)
(0.995156 -3.01745e-16 0)
(0.99747 -3.01417e-16 0)
(0.999784 -3.0066e-16 0)
(1.0021 -2.99685e-16 0)
(1.00441 -2.98487e-16 0)
(1.00673 -2.95687e-16 0)
(1.00905 -2.92552e-16 0)
(1.01137 -2.89409e-16 0)
(1.01368 -2.8647e-16 0)
(1.016 -2.85511e-16 0)
(1.01832 -2.8489e-16 0)
(1.02064 -2.82676e-16 0)
(1.02296 -2.80245e-16 0)
(1.02528 -2.80582e-16 0)
(1.0276 -2.8162e-16 0)
(1.02992 -2.79536e-16 0)
(1.03224 -2.74979e-16 0)
(1.03456 -2.70649e-16 0)
(1.03688 -2.68157e-16 0)
(1.0392 -2.67636e-16 0)
(1.04152 -2.67066e-16 0)
(1.04384 -2.6728e-16 0)
(1.04616 -2.6851e-16 0)
(1.04848 -2.68693e-16 0)
(1.0508 -2.68037e-16 0)
(1.05312 -2.6764e-16 0)
(1.05544 -2.67307e-16 0)
(1.05776 -2.67266e-16 0)
(1.06007 -2.67579e-16 0)
(1.06239 -2.69731e-16 0)
(1.06471 -2.70741e-16 0)
(1.06702 -2.69959e-16 0)
(1.06934 -2.70615e-16 0)
(1.07165 -2.72095e-16 0)
(1.07396 -2.72019e-16 0)
(1.07627 -2.68973e-16 0)
(1.07858 -2.64895e-16 0)
(1.08089 -2.62705e-16 0)
(1.0832 -2.62221e-16 0)
(1.0855 -2.59254e-16 0)
(1.08781 -2.56276e-16 0)
(1.09011 -2.56221e-16 0)
(1.09241 -2.56103e-16 0)
(1.09471 -2.54319e-16 0)
(1.09701 -2.48855e-16 0)
(1.09931 -2.46186e-16 0)
(1.1016 -2.48561e-16 0)
(1.1039 -2.49506e-16 0)
(1.10619 -2.49832e-16 0)
(1.10847 -2.50318e-16 0)
(1.11076 -2.47759e-16 0)
(1.11304 -2.44869e-16 0)
(1.11532 -2.45627e-16 0)
(1.1176 -2.46262e-16 0)
(1.11988 -2.47005e-16 0)
(1.12215 -2.47285e-16 0)
(1.12442 -2.46261e-16 0)
(1.12669 -2.45677e-16 0)
(1.12896 -2.45703e-16 0)
(1.13122 -2.45593e-16 0)
(1.13348 -2.42848e-16 0)
(1.13573 -2.3883e-16 0)
(1.13798 -2.37216e-16 0)
(1.14023 -2.32934e-16 0)
(1.14247 -2.27713e-16 0)
(1.14472 -2.28557e-16 0)
(1.14695 -2.28545e-16 0)
(1.14918 -2.26381e-16 0)
(1.15141 -2.23941e-16 0)
(1.15364 -2.22019e-16 0)
(1.15586 -2.18935e-16 0)
(1.15807 -2.10845e-16 0)
(1.16029 -2.02523e-16 0)
(1.16249 -1.95842e-16 0)
(1.16469 -1.89867e-16 0)
(1.16689 -1.86813e-16 0)
(1.16908 -1.83388e-16 0)
(1.17127 -1.80311e-16 0)
(1.17345 -1.77895e-16 0)
(1.17563 -1.73365e-16 0)
(1.1778 -1.7161e-16 0)
(1.17996 -1.72987e-16 0)
(1.18212 -1.74328e-16 0)
(1.18427 -1.73724e-16 0)
(1.18642 -1.71679e-16 0)
(1.18856 -1.70172e-16 0)
(1.1907 -1.69677e-16 0)
(1.19282 -1.69591e-16 0)
(1.19495 -1.64834e-16 0)
(1.19706 -1.6187e-16 0)
(1.19917 -1.6596e-16 0)
(1.20127 -1.69449e-16 0)
(1.20336 -1.70913e-16 0)
(1.20544 -1.7146e-16 0)
(1.20752 -1.73519e-16 0)
(1.20959 -1.76308e-16 0)
(1.21165 -1.77997e-16 0)
(1.21371 -1.78563e-16 0)
(1.21575 -1.79262e-16 0)
(1.21779 -1.79102e-16 0)
(1.21982 -1.76356e-16 0)
(1.22184 -1.74159e-16 0)
(1.22385 -1.74105e-16 0)
(1.22585 -1.74981e-16 0)
(1.22784 -1.74614e-16 0)
(1.22983 -1.73526e-16 0)
(1.2318 -1.70792e-16 0)
(1.23376 -1.66808e-16 0)
(1.23571 -1.65964e-16 0)
(1.23766 -1.64173e-16 0)
(1.23959 -1.63179e-16 0)
(1.24151 -1.64505e-16 0)
(1.24342 -1.66876e-16 0)
(1.24532 -1.69174e-16 0)
(1.24721 -1.69104e-16 0)
(1.24909 -1.65292e-16 0)
(1.25095 -1.62273e-16 0)
(1.25281 -1.63861e-16 0)
(1.25465 -1.61863e-16 0)
(1.25648 -1.58993e-16 0)
(1.2583 -1.61032e-16 0)
(1.2601 -1.60429e-16 0)
(1.26189 -1.59078e-16 0)
(1.26367 -1.58961e-16 0)
(1.26544 -1.59773e-16 0)
(1.26719 -1.59776e-16 0)
(1.26892 -1.57034e-16 0)
(1.27065 -1.53734e-16 0)
(1.27236 -1.51593e-16 0)
(1.27405 -1.50601e-16 0)
(1.27573 -1.49965e-16 0)
(1.2774 -1.50399e-16 0)
(1.27905 -1.50021e-16 0)
(1.28069 -1.50361e-16 0)
(1.2823 -1.49433e-16 0)
(1.28391 -1.46371e-16 0)
(1.2855 -1.44572e-16 0)
(1.28707 -1.4082e-16 0)
(1.28862 -1.35808e-16 0)
(1.29016 -1.36378e-16 0)
(1.29168 -1.3965e-16 0)
(1.29319 -1.43352e-16 0)
(1.29467 -1.44595e-16 0)
(1.29614 -1.41787e-16 0)
(1.29759 -1.41507e-16 0)
(1.29902 -1.36062e-16 0)
(1.30044 -1.30816e-16 0)
(1.30183 -1.31777e-16 0)
(1.30321 -1.25388e-16 0)
(1.30457 -1.2323e-16 0)
(1.30591 -1.30049e-16 0)
(1.30722 -1.34047e-16 0)
(1.30852 -1.35128e-16 0)
(1.3098 -1.35489e-16 0)
(1.31105 -1.34133e-16 0)
(1.31229 -1.34757e-16 0)
(1.31351 -1.35983e-16 0)
(1.3147 -1.31639e-16 0)
(1.31587 -1.27032e-16 0)
(1.31702 -1.2616e-16 0)
(1.31815 -1.26922e-16 0)
(1.31926 -1.28772e-16 0)
(1.32034 -1.28803e-16 0)
(1.3214 -1.25725e-16 0)
(1.32244 -1.17775e-16 0)
(1.32345 -1.06918e-16 0)
(1.32444 -1.03224e-16 0)
(1.3254 -1.02503e-16 0)
(1.32634 -1.02351e-16 0)
(1.32726 -1.02588e-16 0)
(1.32815 -9.99238e-17 0)
(1.32902 -9.35506e-17 0)
(1.32986 -9.14762e-17 0)
(1.33067 -9.18197e-17 0)
(1.33146 -8.58138e-17 0)
(1.33222 -7.7711e-17 0)
(1.33296 -7.4619e-17 0)
(1.33367 -6.67426e-17 0)
(1.33435 -5.19286e-17 0)
(1.335 -4.3816e-17 0)
(1.33562 -3.96633e-17 0)
(1.33622 -4.24625e-17 0)
(1.33679 -4.3113e-17 0)
(1.33733 -4.15703e-17 0)
(1.33783 -3.96901e-17 0)
(1.33831 -3.65321e-17 0)
(1.33876 -3.68877e-17 0)
(1.33918 -3.77834e-17 0)
(1.33957 -4.00805e-17 0)
(1.33992 -3.83364e-17 0)
(1.34025 -3.00288e-17 0)
(1.34054 -2.23653e-17 0)
(1.3408 -1.80483e-17 0)
(1.34102 -1.47972e-17 0)
(1.34122 -1.08772e-17 0)
(1.34138 -2.40415e-18 0)
(1.3415 1.40041e-18 0)
(1.34159 6.32927e-18 0)
(1.34165 -1.88697e-18 0)
)
;

boundaryField
{
    INLET
    {
        type            cyclic;
    }
    OUTLET
    {
        type            cyclic;
    }
    CENTER
    {
        type            symmetryPlane;
    }
    WALL
    {
        type            noSlip;
    }
    frontAndBackPlanes
    {
        type            empty;
    }
}


// ************************************************************************* //
