/*--------------------------------*- C++ -*----------------------------------*\
| =========                 |                                                 |
| \\      /  F ield         | OpenFOAM: The Open Source CFD Toolbox           |
|  \\    /   O peration     | Version:  v1806                                 |
|   \\  /    A nd           | Web:      www.OpenFOAM.com                      |
|    \\/     M anipulation  |                                                 |
\*---------------------------------------------------------------------------*/
FoamFile
{
    version     2.0;
    format      ascii;
    class       volVectorField;
    location    "10000";
    object      divRS_DNS;
}
// * * * * * * * * * * * * * * * * * * * * * * * * * * * * * * * * * * * * * //

dimensions      [0 1 -2 0 0 0 0];


internalField   nonuniform List<vector> 
1025
(
(-5.49249e-05 -6.45466e-07 -1.80143e-08)
(-0.000236795 7.63765e-06 -7.81784e-08)
(-0.000621684 2.88581e-05 -2.06396e-07)
(-0.00106916 5.96128e-05 -3.55933e-07)
(-0.00187612 0.000130248 -6.2596e-07)
(-0.00269495 0.000210552 -8.99543e-07)
(-0.00395217 0.000358293 -1.31753e-06)
(-0.00499873 0.00048128 -1.66549e-06)
(-0.00671656 0.00072572 -2.22789e-06)
(-0.0088273 0.00102607 -2.9189e-06)
(-0.00943525 0.00111726 -3.11634e-06)
(-0.0127345 0.00165863 -4.17204e-06)
(-0.0158187 0.0021647 -5.1589e-06)
(-0.0158186 0.0021647 -5.15895e-06)
(-0.0203642 0.00299337 -6.57395e-06)
(-0.0252131 0.00387734 -8.08326e-06)
(-0.0255164 0.00393264 -8.17763e-06)
(-0.0285338 0.00452799 -9.0899e-06)
(-0.0352698 0.00585702 -1.11262e-05)
(-0.0389885 0.00659066 -1.22502e-05)
(-0.0389888 0.00659066 -1.22501e-05)
(-0.0444324 0.00773483 -1.3848e-05)
(-0.0532964 0.00959782 -1.64496e-05)
(-0.0567177 0.0103166 -1.74534e-05)
(-0.056718 0.0103165 -1.74534e-05)
(-0.0617564 0.0114373 -1.88884e-05)
(-0.0728096 0.0138959 -2.20359e-05)
(-0.0788259 0.0152336 -2.37483e-05)
(-0.0788257 0.0152335 -2.37482e-05)
(-0.0788245 0.0152336 -2.37486e-05)
(-0.0917775 0.0182895 -2.73186e-05)
(-0.104828 0.0213684 -3.09155e-05)
(-0.104924 0.0213914 -3.0943e-05)
(-0.104924 0.0213918 -3.09424e-05)
(-0.108509 0.0222986 -3.18949e-05)
(-0.123069 0.0259812 -3.57662e-05)
(-0.134044 0.0287588 -3.86849e-05)
(-0.134042 0.0287587 -3.86846e-05)
(-0.134042 0.0287575 -3.86843e-05)
(-0.137658 0.0297583 -3.9611e-05)
(-0.152967 0.0339921 -4.35367e-05)
(-0.164656 0.0372244 -4.65361e-05)
(-0.16466 0.0372246 -4.65363e-05)
(-0.164666 0.0372259 -4.65366e-05)
(-0.164663 0.0372252 -4.65354e-05)
(-0.179512 0.0418432 -5.02533e-05)
(-0.194615 0.04654 -5.40358e-05)
(-0.19488 0.0466181 -5.4099e-05)
(-0.194873 0.046619 -5.40988e-05)
(-0.194866 0.0466196 -5.4099e-05)
(-0.201944 0.0491901 -5.58965e-05)
(-0.215825 0.0542409 -5.9427e-05)
(-0.222649 0.0567216 -6.11589e-05)
(-0.222645 0.0567216 -6.11586e-05)
(-0.222638 0.056721 -6.11591e-05)
(-0.222641 0.0567216 -6.11596e-05)
(-0.23239 0.0611202 -6.38944e-05)
(-0.244114 0.0664048 -6.71811e-05)
(-0.246086 0.067292 -6.77328e-05)
(-0.246075 0.067292 -6.77326e-05)
(-0.246074 0.067292 -6.77325e-05)
(-0.246083 0.067292 -6.77324e-05)
(-0.254645 0.0725377 -7.07727e-05)
(-0.263455 0.0779337 -7.38995e-05)
(-0.263704 0.0780822 -7.39822e-05)
(-0.263702 0.0780816 -7.39894e-05)
(-0.2637 0.078082 -7.39898e-05)
(-0.263704 0.0780824 -7.39839e-05)
(-0.26888 0.083193 -7.68908e-05)
(-0.274331 0.0885803 -7.99527e-05)
(-0.27461 0.0888464 -8.01121e-05)
(-0.274616 0.0888424 -8.01116e-05)
(-0.274607 0.088858 -8.01129e-05)
(-0.274606 0.0888551 -8.01142e-05)
(-0.276146 0.0929539 -8.25156e-05)
(-0.278108 0.0982179 -8.55902e-05)
(-0.27854 0.0993643 -8.62683e-05)
(-0.278532 0.0993582 -8.62696e-05)
(-0.278534 0.0993702 -8.62618e-05)
(-0.278535 0.0993732 -8.62631e-05)
(-0.277875 0.101799 -8.77989e-05)
(-0.276515 0.10682 -9.09786e-05)
(-0.27582 0.109417 -9.26229e-05)
(-0.275815 0.109421 -9.2618e-05)
(-0.27581 0.109425 -9.26132e-05)
(-0.275823 0.10942 -9.26171e-05)
(-0.275503 0.109765 -9.28677e-05)
(-0.271216 0.114466 -9.62193e-05)
(-0.267256 0.118812 -9.93262e-05)
(-0.267259 0.118814 -9.93335e-05)
(-0.267253 0.118816 -9.93324e-05)
(-0.267251 0.118817 -9.93313e-05)
(-0.267254 0.118821 -9.93345e-05)
(-0.263484 0.12125 -0.000101362)
(-0.256848 0.125529 -0.000104958)
(-0.253983 0.127378 -0.000106512)
(-0.253973 0.127375 -0.000106507)
(-0.253975 0.127378 -0.000106509)
(-0.253983 0.127384 -0.000106507)
(-0.253976 0.127379 -0.00010651)
(-0.245784 0.131085 -0.000110215)
(-0.237416 0.134876 -0.000114007)
(-0.23724 0.134949 -0.000114099)
(-0.237241 0.134957 -0.000114093)
(-0.237234 0.13496 -0.00011409)
(-0.237235 0.134953 -0.000114092)
(-0.234197 0.135989 -0.000115336)
(-0.224762 0.139219 -0.000119213)
(-0.218263 0.141414 -0.000121838)
(-0.218255 0.141415 -0.000121837)
(-0.218317 0.141411 -0.000121839)
(-0.218301 0.141414 -0.000121842)
(-0.218268 0.141414 -0.000121842)
(-0.21222 0.142998 -0.000124066)
(-0.202182 0.145621 -0.000127751)
(-0.1982 0.146658 -0.000129197)
(-0.198254 0.146658 -0.000129196)
(-0.198299 0.146653 -0.000129198)
(-0.198263 0.146658 -0.000129195)
(-0.198226 0.146662 -0.0001292)
(-0.189709 0.148327 -0.000131705)
(-0.17961 0.150308 -0.00013467)
(-0.178106 0.150622 -0.000135124)
(-0.178071 0.150614 -0.000135123)
(-0.178029 0.150614 -0.000135131)
(-0.178066 0.15062 -0.00013513)
(-0.17753 0.150684 -0.0001352)
(-0.167707 0.152007 -0.000136711)
(-0.158497 0.153269 -0.000138145)
(-0.158471 0.153266 -0.000138134)
(-0.158438 0.153265 -0.000138133)
(-0.15846 0.153269 -0.000138145)
(-0.158411 0.153266 -0.000138144)
(-0.156289 0.15342 -0.00013798)
(-0.147063 0.154093 -0.000137316)
(-0.139887 0.154612 -0.000136803)
(-0.139916 0.154613 -0.000136805)
(-0.139939 0.154608 -0.000136809)
(-0.139895 0.154604 -0.0001368)
(-0.139918 0.154606 -0.000136804)
(-0.136515 0.15463 -0.000135569)
(-0.127911 0.15467 -0.000132461)
(-0.122768 0.15469 -0.000130596)
(-0.122791 0.154689 -0.000130595)
(-0.122744 0.15469 -0.000130603)
(-0.122763 0.154691 -0.000130605)
(-0.122777 0.154688 -0.000130596)
(-0.118434 0.154381 -0.000127736)
(-0.110623 0.153825 -0.000122627)
(-0.107136 0.153581 -0.000120364)
(-0.107211 0.15358 -0.000120358)
(-0.107216 0.153576 -0.000120364)
(-0.107156 0.153585 -0.000120364)
(-0.107224 0.15358 -0.000120363)
(-0.102203 0.152785 -0.000115808)
(-0.0951383 0.151688 -0.000109464)
(-0.0931915 0.151377 -0.000107676)
(-0.0932513 0.151375 -0.000107674)
(-0.0932461 0.151375 -0.000107675)
(-0.0932406 0.151375 -0.00010767)
(-0.0932298 0.151377 -0.00010767)
(-0.0877454 0.149965 -0.000101401)
(-0.0815663 0.148375 -9.43075e-05)
(-0.0808233 0.148192 -9.3481e-05)
(-0.0808026 0.148214 -9.34787e-05)
(-0.0807821 0.148212 -9.34824e-05)
(-0.0808212 0.148192 -9.34801e-05)
(-0.0805008 0.148028 -9.29819e-05)
(-0.0750135 0.145999 -8.50661e-05)
(-0.0699087 0.144161 -7.76451e-05)
(-0.0699643 0.144192 -7.76499e-05)
(-0.0699594 0.14416 -7.76525e-05)
(-0.0698872 0.144113 -7.76454e-05)
(-0.0699307 0.144182 -7.76498e-05)
(-0.0686764 0.143539 -7.53513e-05)
(-0.0638984 0.141133 -6.65806e-05)
(-0.0604203 0.13941 -6.01136e-05)
(-0.0604125 0.139418 -6.01074e-05)
(-0.060405 0.139426 -6.01068e-05)
(-0.0603584 0.139362 -6.01064e-05)
(-0.0603678 0.139353 -6.01059e-05)
(-0.0584238 0.138089 -5.57833e-05)
(-0.0542698 0.135471 -4.68346e-05)
(-0.0520879 0.134066 -4.22198e-05)
(-0.0521191 0.134044 -4.22204e-05)
(-0.0521361 0.134041 -4.2215e-05)
(-0.0521127 0.134019 -4.2221e-05)
(-0.0521036 0.134088 -4.22222e-05)
(-0.0494561 0.131925 -3.65238e-05)
(-0.0458892 0.129008 -2.87715e-05)
(-0.0449761 0.128283 -2.66986e-05)
(-0.0449327 0.128235 -2.67001e-05)
(-0.0449301 0.128259 -2.67579e-05)
(-0.044928 0.128283 -2.67367e-05)
(-0.0448735 0.12815 -2.66112e-05)
(-0.0417627 0.125117 -2.13572e-05)
(-0.0387179 0.12215 -1.61799e-05)
(-0.0387446 0.122099 -1.62078e-05)
(-0.0387097 0.122069 -1.62314e-05)
(-0.0387359 0.12212 -1.6208e-05)
(-0.0387212 0.122101 -1.61888e-05)
(-0.0377801 0.121013 -1.54564e-05)
(-0.03513 0.117895 -1.327e-05)
(-0.0333584 0.115729 -1.1803e-05)
(-0.0333582 0.115708 -1.17501e-05)
(-0.0333499 0.115758 -1.17443e-05)
(-0.0333415 0.115758 -1.17879e-05)
(-0.0333824 0.115709 -1.17821e-05)
(-0.0317578 0.113488 -1.20657e-05)
(-0.0294204 0.110238 -1.24482e-05)
(-0.0287029 0.109196 -1.25363e-05)
(-0.0287159 0.109275 -1.25752e-05)
(-0.0287291 0.109257 -1.2566e-05)
(-0.0286806 0.109234 -1.25031e-05)
(-0.0284971 0.108953 -1.2728e-05)
(-0.0265349 0.105658 -1.48931e-05)
(-0.0247117 0.102706 -1.6757e-05)
(-0.0246839 0.10267 -1.6768e-05)
(-0.0247085 0.102657 -1.67833e-05)
(-0.0247275 0.102714 -1.67478e-05)
(-0.0247056 0.102702 -1.67628e-05)
(-0.0237264 0.100969 -1.83871e-05)
(-0.0220106 0.0977389 -2.1456e-05)
(-0.0212659 0.0961749 -2.29053e-05)
(-0.0212102 0.0961703 -2.2887e-05)
(-0.0211997 0.0962111 -2.28688e-05)
(-0.0212393 0.0962281 -2.29007e-05)
(-0.0211845 0.0960897 -2.2972e-05)
(-0.0197055 0.0928694 -2.59656e-05)
(-0.0182382 0.0898185 -2.89508e-05)
(-0.0182018 0.0898194 -2.89555e-05)
(-0.0182455 0.0897807 -2.89036e-05)
(-0.0182414 0.0897665 -2.89329e-05)
(-0.0182016 0.0897914 -2.89748e-05)
(-0.0174756 0.0880229 -3.01013e-05)
(-0.0161908 0.0849116 -3.21615e-05)
(-0.0156384 0.0835477 -3.30763e-05)
(-0.015647 0.0835216 -3.30846e-05)
(-0.0156588 0.0835561 -3.30999e-05)
(-0.0156284 0.0835481 -3.30729e-05)
(-0.0154722 0.0830786 -3.32977e-05)
(-0.0143568 0.0800228 -3.47743e-05)
(-0.013411 0.0774676 -3.59435e-05)
(-0.0134301 0.0774716 -3.59377e-05)
(-0.0133692 0.0774499 -3.5981e-05)
(-0.013388 0.0774948 -3.59754e-05)
(-0.013407 0.0774985 -3.59698e-05)
(-0.0126543 0.0751481 -3.73441e-05)
(-0.0117033 0.0722426 -3.90355e-05)
(-0.0114873 0.0716647 -3.93792e-05)
(-0.0114722 0.0716406 -3.94303e-05)
(-0.0114593 0.0716311 -3.94092e-05)
(-0.0114865 0.0716216 -3.93879e-05)
(-0.0110748 0.0702822 -4.02589e-05)
(-0.0102332 0.0674966 -4.20285e-05)
(-0.00983346 0.0660529 -4.29774e-05)
(-0.00982845 0.0660297 -4.29798e-05)
(-0.00982139 0.0660325 -4.29348e-05)
(-0.00981458 0.0660742 -4.29289e-05)
(-0.00965416 0.0654246 -4.30382e-05)
(-0.00895833 0.0627419 -4.33678e-05)
(-0.00837941 0.0607502 -4.36107e-05)
(-0.00837752 0.0607658 -4.35937e-05)
(-0.0083774 0.060717 -4.35849e-05)
(-0.00837712 0.0607062 -4.35763e-05)
(-0.00837545 0.060647 -4.35222e-05)
(-0.00774102 0.0581268 -4.14561e-05)
(-0.0071481 0.0556667 -3.94074e-05)
(-0.00715211 0.0557049 -3.94101e-05)
(-0.007118 0.0556963 -3.94057e-05)
(-0.00712064 0.0556509 -3.93647e-05)
(-0.00715969 0.0556787 -3.93966e-05)
(-0.00665815 0.0535863 -3.62587e-05)
(-0.00612285 0.0512162 -3.2668e-05)
(-0.00609323 0.050932 -3.22581e-05)
(-0.00606388 0.0509007 -3.2281e-05)
(-0.00603589 0.0509142 -3.22742e-05)
(-0.00604235 0.050954 -3.22614e-05)
(-0.00569804 0.0491689 -2.97228e-05)
(-0.00525137 0.0468767 -2.64675e-05)
(-0.00512207 0.0464458 -2.5784e-05)
(-0.00513162 0.0464634 -2.57629e-05)
(-0.00514247 0.0464538 -2.57807e-05)
(-0.00511934 0.0464526 -2.58032e-05)
(-0.00482293 0.0448396 -2.41489e-05)
(-0.00442497 0.0427514 -2.1989e-05)
(-0.00433607 0.0422763 -2.15107e-05)
(-0.0043156 0.0422792 -2.15106e-05)
(-0.00429533 0.0422483 -2.14765e-05)
(-0.00430856 0.0422512 -2.15096e-05)
(-0.00405649 0.0407283 -2.06138e-05)
(-0.00370633 0.0387832 -1.94249e-05)
(-0.00362261 0.0383665 -1.91668e-05)
(-0.0036381 0.0383481 -1.92068e-05)
(-0.00362163 0.038336 -1.9217e-05)
(-0.00360442 0.0383504 -1.91915e-05)
(-0.00336195 0.0367844 -1.80375e-05)
(-0.00308832 0.0349692 -1.66966e-05)
(-0.00304155 0.0347366 -1.64879e-05)
(-0.00299555 0.0347355 -1.64755e-05)
(-0.00301342 0.0347027 -1.64948e-05)
(-0.0030308 0.0346961 -1.65115e-05)
(-0.00276573 0.0330597 -1.34871e-05)
(-0.00250197 0.0313684 -1.04457e-05)
(-0.00249029 0.0313463 -1.03969e-05)
(-0.00247871 0.0313556 -1.04104e-05)
(-0.00249801 0.0313339 -1.04241e-05)
(-0.00245566 0.0310626 -9.54783e-06)
(-0.00219991 0.0295127 -4.74405e-06)
(-0.00203734 0.0282196 -7.90638e-07)
(-0.00205812 0.0282083 -7.56736e-07)
(-0.00201816 0.0282228 -7.52944e-07)
(-0.00200864 0.0282417 -7.79497e-07)
(-0.00193994 0.027635 1.39737e-06)
(-0.00175252 0.0261974 6.49736e-06)
(-0.00162609 0.0253363 9.46037e-06)
(-0.0016183 0.0253346 9.47483e-06)
(-0.00163983 0.0253587 9.42904e-06)
(-0.00160311 0.025357 9.44323e-06)
(-0.00147976 0.0244292 1.22651e-05)
(-0.00132847 0.0231023 1.61107e-05)
(-0.00126456 0.0227044 1.71577e-05)
(-0.00125859 0.0227117 1.71624e-05)
(-0.00125285 0.0227221 1.71697e-05)
(-0.001247 0.0226444 1.74006e-05)
(-0.00107219 0.0214102 2.01604e-05)
(-0.000926387 0.0202975 2.26559e-05)
(-0.000922246 0.0203158 2.26631e-05)
(-0.000917622 0.0203003 2.26919e-05)
(-0.000941051 0.0202879 2.26958e-05)
(-0.00085431 0.019756 2.42422e-05)
(-0.000713054 0.0186743 2.74158e-05)
(-0.000655025 0.018095 2.90666e-05)
(-0.000652089 0.0180953 2.90722e-05)
(-0.000649003 0.0180909 2.90697e-05)
(-0.000619014 0.0180839 2.90635e-05)
(-0.000509091 0.0171443 3.24818e-05)
(-0.00039996 0.0161292 3.60966e-05)
(-0.000397922 0.0160785 3.62961e-05)
(-0.000396205 0.0160835 3.62869e-05)
(-0.000368036 0.0160621 3.62776e-05)
(-0.0003402 0.0156472 3.77517e-05)
(-0.000234559 0.0147408 4.09075e-05)
(-0.000155522 0.0142302 4.25869e-05)
(-0.0001548 0.0142157 4.25696e-05)
(-0.000179679 0.0142251 4.25472e-05)
(-0.000178951 0.0142091 4.26524e-05)
(-5.11109e-05 0.0133826 4.54784e-05)
(2.53807e-05 0.0125839 4.81328e-05)
(2.51383e-05 0.012574 4.81289e-05)
(2.51383e-05 0.0125643 4.81505e-05)
(2.64301e-17 0.0125562 4.81278e-05)
(7.43679e-05 0.0120772 4.97663e-05)
(0.00017306 0.0113275 5.22547e-05)
(0.000172366 0.0110523 5.30954e-05)
(0.000171426 0.0110485 5.30867e-05)
(0.000195052 0.0110691 5.30781e-05)
(0.000218365 0.0108245 5.31245e-05)
(0.000265679 0.010123 5.32671e-05)
(0.000312519 0.00968983 5.33782e-05)
(0.000311138 0.00969131 5.33621e-05)
(0.000309582 0.00969393 5.33523e-05)
(0.000331913 0.00964923 5.3201e-05)
(0.000377427 0.00901507 5.0784e-05)
(0.000422736 0.00845461 4.85673e-05)
(0.000444081 0.00846194 4.85741e-05)
(0.000442123 0.00844578 4.85575e-05)
(0.000416814 0.008452 4.85585e-05)
(0.000460832 0.00797529 4.64005e-05)
(0.000527594 0.00741015 4.38687e-05)
(0.000548011 0.00732959 4.34935e-05)
(0.000545396 0.00734006 4.34951e-05)
(0.000520242 0.00732787 4.34943e-05)
(0.00056266 0.00697958 4.24876e-05)
(0.000627454 0.00649895 4.10185e-05)
(0.000624516 0.00633437 4.05554e-05)
(0.000621604 0.00632699 4.0555e-05)
(0.000618651 0.00631908 4.05546e-05)
(0.000659605 0.00606981 4.03611e-05)
(0.000700452 0.00562596 4.00179e-05)
(0.000718906 0.00542482 3.98715e-05)
(0.000715581 0.00542067 3.98721e-05)
(0.000712081 0.00541647 3.98727e-05)
(0.000730323 0.0052201 4.04326e-05)
(0.000769628 0.00483259 4.15467e-05)
(0.000808602 0.00461759 4.21024e-05)
(0.000804748 0.00461661 4.21029e-05)
(0.000801016 0.00461643 4.21037e-05)
(0.000797319 0.00442756 4.30486e-05)
(0.00083533 0.00407314 4.50019e-05)
(0.000873095 0.0038873 4.60098e-05)
(0.00086894 0.00388954 4.60122e-05)
(0.000885368 0.00389166 4.60126e-05)
(0.000901737 0.0037303 4.65568e-05)
(0.000917856 0.00338643 4.76194e-05)
(0.00093392 0.00322807 4.81352e-05)
(0.00092958 0.00323332 4.81338e-05)
(0.000925279 0.00323843 4.81344e-05)
(0.00096087 0.00306351 4.8222e-05)
(0.00099622 0.00276973 4.83681e-05)
(0.000991577 0.00265743 4.84284e-05)
(0.000986978 0.0026451 4.84268e-05)
(0.00100192 0.00265223 4.84263e-05)
(0.00101682 0.0024643 4.9056e-05)
(0.00105091 0.00219945 4.99235e-05)
(0.00106553 0.00213097 5.01647e-05)
(0.00104127 0.00214034 5.01658e-05)
(0.00105552 0.00214952 5.01641e-05)
(0.00108868 0.00192965 5.26957e-05)
(0.00110267 0.0016731 5.5524e-05)
(0.00111643 0.00166517 5.5818e-05)
(0.00113006 0.00167629 5.58169e-05)
(0.00112476 0.00163095 5.61843e-05)
(0.00113802 0.00143698 5.93365e-05)
(0.00116977 0.00126266 6.21224e-05)
(0.00116445 0.00125682 6.21236e-05)
(0.00115901 0.00125104 6.21249e-05)
(0.00119022 0.00117213 6.20785e-05)
(0.00122103 0.000984409 6.19557e-05)
(0.00121536 0.00088877 6.1881e-05)
(0.00120957 0.000884683 6.18812e-05)
(0.00123986 0.000880466 6.18814e-05)
(0.00125191 0.000769331 5.85772e-05)
(0.00126387 0.000605334 5.38101e-05)
(0.00127581 0.00054935 5.23487e-05)
(0.00126974 0.00054665 5.23481e-05)
(0.00126383 0.000544189 5.20001e-05)
(0.00129272 0.000402118 4.48908e-05)
(0.00133875 0.000260844 3.81292e-05)
(0.00133269 0.0002423 3.81291e-05)
(0.00130934 0.000258382 3.81273e-05)
(0.00133737 0.000205927 3.45097e-05)
(0.0013652 6.84229e-05 2.64509e-05)
(0.0013587 0 2.20092e-05)
(0.00136925 0 2.201e-05)
(0.00137978 2.22735e-18 2.20091e-05)
(0.00139002 -0.000116959 1.51893e-05)
(0.00140024 -0.000233373 7.54319e-06)
(0.00139362 -0.00023227 6.71423e-06)
(0.00140354 -0.000231177 6.71235e-06)
(0.00141344 -0.000262886 4.36257e-06)
(0.00142317 -0.000376062 -1.86091e-06)
(0.00144913 -0.000439673 -5.73313e-06)
(0.00144228 -0.000437494 -5.73326e-06)
(0.00143545 -0.000435523 -5.73387e-06)
(0.001461 -0.000513546 -1.08735e-05)
(0.00147013 -0.000607226 -1.65519e-05)
(0.00146323 -0.000620245 -1.70895e-05)
(0.00147219 -0.000617423 -1.70888e-05)
(0.00148102 -0.000645866 -1.89149e-05)
(0.0014897 -0.000736917 -2.2763e-05)
(0.00149837 -0.000780401 -2.47854e-05)
(0.00149139 -0.000776764 -2.47848e-05)
(0.00149978 -0.000788526 -2.47808e-05)
(0.00150816 -0.000846312 -2.47446e-05)
(0.00151652 -0.000903769 -2.47105e-05)
(0.00153996 -0.00093006 -2.47114e-05)
(0.00153267 -0.000925687 -2.47117e-05)
(0.00152531 -0.000951345 -2.30681e-05)
(0.00154826 -0.00102211 -2.08356e-05)
(0.00155608 -0.00104736 -2.02454e-05)
(0.00154889 -0.00104253 -2.02442e-05)
(0.00155634 -0.00106715 -1.91533e-05)
(0.00156366 -0.00112105 -1.65974e-05)
(0.00157108 -0.0011453 -1.51296e-05)
(0.00157849 -0.00114002 -1.51286e-05)
(0.00157115 -0.00114923 -1.49974e-05)
(0.0015782 -0.00120167 -1.41493e-05)
(0.00158514 -0.00125367 -1.34332e-05)
(0.00159206 -0.00124789 -1.34323e-05)
(0.00158474 -0.00124203 -1.34328e-05)
(0.0015913 -0.00127871 -1.49707e-05)
(0.00161211 -0.00131511 -1.66341e-05)
(0.00160463 -0.00133716 -1.67598e-05)
(0.00161118 -0.00133104 -1.67608e-05)
(0.00161764 -0.00135258 -1.91896e-05)
(0.00162385 -0.00138793 -2.25114e-05)
(0.00163007 -0.0013952 -2.34065e-05)
(0.00162245 -0.00140246 -2.34071e-05)
(0.00162855 -0.00140958 -2.52714e-05)
(0.00164814 -0.00144379 -2.85127e-05)
(0.00165402 -0.00147774 -2.98902e-05)
(0.00164632 -0.00147093 -2.989e-05)
(0.00163847 -0.00147725 -3.07219e-05)
(0.00164403 -0.00151037 -3.25446e-05)
(0.0016631 -0.00151677 -3.35351e-05)
(0.00165545 -0.00152295 -3.35346e-05)
(0.00164753 -0.00152894 -3.36612e-05)
(0.00166599 -0.00154789 -3.39992e-05)
(0.00167125 -0.00157982 -3.42094e-05)
(0.0016765 -0.00158556 -3.42089e-05)
(0.00166876 -0.00157817 -3.37363e-05)
(0.00167359 -0.00159634 -3.22946e-05)
(0.00169145 -0.00162735 -3.13237e-05)
(0.00168358 -0.00161983 -3.13233e-05)
(0.00167567 -0.00162483 -3.01886e-05)
(0.00169305 -0.00165517 -2.66113e-05)
(0.00169783 -0.00166007 -2.41703e-05)
(0.0016898 -0.00165228 -2.41695e-05)
(0.00169429 -0.00166932 -2.24956e-05)
(0.00169878 -0.00168641 -1.76018e-05)
(0.00170319 -0.00169082 -1.43807e-05)
(0.00170739 -0.00169513 -1.43803e-05)
(0.00171171 -0.00171165 -1.26022e-05)
(0.00171583 -0.00172803 -8.17058e-06)
(0.00171987 -0.00171987 -5.51445e-06)
(0.00172381 -0.00172381 -5.51383e-06)
(0.00172787 -0.00173984 -4.05062e-06)
(0.00173174 -0.00175562 -1.08563e-06)
(0.00173542 -0.00175919 4.1602e-07)
(0.00173911 -0.00175097 4.16447e-07)
(0.00174283 -0.00176632 8.66813e-07)
(0.00174635 -0.00178154 1.59569e-06)
(0.00176153 -0.00178486 1.87238e-06)
(0.00176489 -0.00177653 1.8717e-06)
(0.00176805 -0.00179111 8.04516e-07)
(0.00177135 -0.00180588 -5.64064e-07)
(0.00177456 -0.00179745 -8.65533e-07)
(0.00177759 -0.00181174 -8.64861e-07)
(0.00178053 -0.0018259 -2.44826e-06)
(0.00179487 -0.00182876 -4.07959e-06)
(0.00179766 -0.00182013 -4.12561e-06)
(0.00178912 -0.00182264 -4.22095e-06)
(0.00179196 -0.00183648 -4.70611e-06)
(0.00180578 -0.00185009 -5.0961e-06)
(0.00180827 -0.00185237 -5.0962e-06)
(0.00181078 -0.00185468 -4.88854e-06)
(0.00182422 -0.00185702 -4.43229e-06)
(0.00182649 -0.00185908 -4.18243e-06)
(0.0018179 -0.00186118 -4.1833e-06)
(0.00183097 -0.00187405 -2.50591e-06)
(0.00184392 -0.0018868 -2.38311e-07)
(0.00183526 -0.00187794 3.51045e-07)
(0.00183719 -0.00187966 6.11072e-07)
(0.00184968 -0.00188142 5.10378e-06)
(0.00185167 -0.0018937 9.33614e-06)
(0.00185339 -0.00189532 9.33612e-06)
(0.00185505 -0.00188629 1.18549e-05)
(0.00185674 -0.00189823 1.80372e-05)
(0.00185846 -0.00191006 2.17015e-05)
(0.00186002 -0.00191143 2.17018e-05)
(0.00186152 -0.00190243 2.53642e-05)
(0.00186296 -0.00191384 3.00231e-05)
(0.00186434 -0.00191503 3.10208e-05)
(0.00186566 -0.001906 3.13486e-05)
(0.00187712 -0.00191727 3.30364e-05)
(0.00187832 -0.00192825 3.4398e-05)
(0.00186945 -0.00191919 3.43986e-05)
(0.00187063 -0.00192009 3.43733e-05)
(0.00188148 -0.00193076 3.43339e-05)
(0.00187295 -0.00192195 3.43205e-05)
(0.00187405 -0.00192288 3.41098e-05)
(0.00188442 -0.00193296 3.19571e-05)
(0.00188496 -0.00193331 3.00145e-05)
(0.00188553 -0.00192401 3.00135e-05)
(0.0018774 -0.00193484 2.84809e-05)
(0.00187886 -0.00193613 2.58957e-05)
(0.00188803 -0.00193545 2.48425e-05)
(0.00188769 -0.00193491 2.43918e-05)
(0.00187971 -0.00193606 2.04933e-05)
(0.00188113 -0.00194666 1.70445e-05)
(0.00189012 -0.0019367 1.70438e-05)
(0.00188977 -0.00193607 1.39442e-05)
(0.00188106 -0.00194559 9.29081e-06)
(0.00188159 -0.00194586 7.73658e-06)
(0.001883 -0.00193785 7.2258e-06)
(0.00187445 -0.00194719 5.13262e-06)
(0.00187329 -0.00195477 3.54932e-06)
(0.00188287 -0.00194595 3.54955e-06)
(0.00188426 -0.00194705 4.23713e-06)
(0.00188392 -0.00195535 5.04788e-06)
(0.00188278 -0.00195383 5.1714e-06)
(0.00188245 -0.00195315 6.54138e-06)
(0.00188298 -0.00196215 9.39577e-06)
(0.00188348 -0.00196234 1.08795e-05)
(0.00189271 -0.00196248 1.11925e-05)
(0.00190103 -0.00196182 1.34836e-05)
(0.00189984 -0.00196888 1.54611e-05)
(0.00189943 -0.00196823 1.54611e-05)
(0.00190842 -0.00196831 1.63498e-05)
(0.00191652 -0.00197616 1.74331e-05)
(0.00191527 -0.00197457 1.7628e-05)
(0.00191479 -0.00198228 1.75287e-05)
(0.00192355 -0.00198237 1.73408e-05)
(0.00193143 -0.0019816 1.72517e-05)
(0.00193013 -0.00198834 1.67591e-05)
(0.0019288 -0.00198677 1.48784e-05)
(0.00193574 -0.00198516 1.34901e-05)
(0.00194341 -0.00199261 1.34229e-05)
(0.00194366 -0.00199266 1.02424e-05)
(0.0019504 -0.00199916 7.12881e-06)
(0.00195636 -0.0019968 7.12854e-06)
(0.00195573 -0.00199595 3.56934e-06)
(0.00195514 -0.00200322 -8.52895e-07)
(0.0019617 -0.00200159 -1.71531e-06)
(0.00196827 -0.00200793 -4.79267e-06)
(0.00195894 -0.00200633 -9.81687e-06)
(0.00196616 -0.0020055 -1.17633e-05)
(0.00196557 -0.00200471 -1.37541e-05)
(0.00196335 -0.00200233 -1.82456e-05)
(0.001969 -0.00200774 -2.07457e-05)
(0.00196759 -0.00200618 -2.14782e-05)
(0.00196622 -0.00201226 -2.39346e-05)
(0.00196482 -0.00201073 -2.56575e-05)
(0.00196274 -0.00200834 -2.58906e-05)
(0.00196063 -0.00201364 -2.72125e-05)
(0.00196684 -0.00201205 -2.82999e-05)
(0.00197299 -0.00201051 -2.8482e-05)
(0.00197163 -0.00200896 -3.08212e-05)
(0.00196952 -0.00201412 -3.29773e-05)
(0.00197485 -0.00201184 -3.29815e-05)
(0.00198085 -0.0020103 -3.54305e-05)
(0.00197876 -0.00200807 -3.78747e-05)
(0.00197665 -0.00200583 -3.78745e-05)
(0.00198256 -0.00201161 -3.79251e-05)
(0.00198699 -0.00201589 -3.79776e-05)
(0.00198419 -0.00201295 -3.79799e-05)
(0.00197567 -0.0020043 -3.59071e-05)
(0.00197363 -0.00200924 -3.36471e-05)
(0.00197802 -0.00201348 -3.34605e-05)
(0.00197601 -0.00201129 -3.03031e-05)
(0.00196768 -0.00200985 -2.68243e-05)
(0.00196503 -0.00201396 -2.65035e-05)
(0.00195481 -0.0020174 -2.29686e-05)
(0.00195289 -0.00201523 -1.91232e-05)
(0.00195796 -0.00201999 -1.88128e-05)
(0.00194855 -0.00201716 -1.77364e-05)
(0.00194672 -0.00202184 -1.66073e-05)
(0.00195171 -0.00202653 -1.65746e-05)
(0.00195534 -0.00202975 -1.94739e-05)
(0.00195222 -0.002033 -2.23534e-05)
(0.0019504 -0.00203083 -2.27017e-05)
(0.00195528 -0.00203536 -2.69019e-05)
(0.00195883 -0.00203851 -3.07537e-05)
(0.00196233 -0.00204162 -3.10077e-05)
(0.00197302 -0.00204538 -3.24268e-05)
(0.00197057 -0.0020491 -3.35915e-05)
(0.00196805 -0.00205278 -3.31811e-05)
(0.00198442 -0.00205577 -3.1795e-05)
(0.00198775 -0.00205872 -3.0819e-05)
(0.00198522 -0.00206232 -2.96916e-05)
(0.00198912 -0.00205949 -2.70772e-05)
(0.00199299 -0.00206302 -2.55969e-05)
(0.00199619 -0.00207224 -2.33328e-05)
(0.00200503 -0.0020744 -1.94869e-05)
(0.00200817 -0.00207092 -1.7904e-05)
(0.00200499 -0.00207369 -1.48296e-05)
(0.00201365 -0.00208204 -1.08103e-05)
(0.00201733 -0.00207922 -9.85767e-06)
(0.00202093 -0.00208255 -6.13979e-06)
(0.00202331 -0.00209074 -2.26281e-06)
(0.00201952 -0.00208665 -1.405e-06)
(0.00202186 -0.00208863 2.627e-06)
(0.00201875 -0.00209731 5.96554e-06)
(0.00202164 -0.00209387 7.31926e-06)
(0.00201799 -0.00209579 1.0648e-05)
(0.00201429 -0.00210369 1.26222e-05)
(0.00201662 -0.00210557 1.4231e-05)
(0.00201358 -0.00210806 1.66738e-05)
(0.00201059 -0.00210466 1.75073e-05)
(0.00201227 -0.0021117 1.79631e-05)
(0.00201398 -0.00211875 1.84458e-05)
(0.00201621 -0.00211471 1.80023e-05)
(0.00201847 -0.00212225 1.58056e-05)
(0.00202065 -0.00212401 1.40918e-05)
(0.00202857 -0.0021257 1.26958e-05)
(0.00203014 -0.0021325 1.003e-05)
(0.00203169 -0.00213356 8.76684e-06)
(0.0020338 -0.00213521 7.70661e-06)
(0.00203532 -0.00213625 6.45912e-06)
(0.00203683 -0.00213727 6.31297e-06)
(0.00203889 -0.00213889 6.52628e-06)
(0.00204036 -0.00213989 6.69837e-06)
(0.00204126 -0.0021403 7.05716e-06)
(0.00204271 -0.00214676 7.70637e-06)
(0.00204415 -0.00214774 7.99673e-06)
(0.00204502 -0.00214266 6.95346e-06)
(0.00204105 -0.00214363 5.8317e-06)
(0.002043 -0.00214516 4.68885e-06)
(0.00204443 -0.00215145 1.40807e-06)
(0.0020394 -0.00215124 -8.07776e-07)
(0.00203445 -0.00215098 -3.83649e-06)
(0.00203585 -0.00215717 -7.95498e-06)
(0.00203729 -0.00215805 -9.37281e-06)
(0.00202771 -0.00215835 -1.13846e-05)
(0.00202341 -0.00216384 -1.30679e-05)
(0.00202433 -0.00216413 -1.17571e-05)
(0.00202525 -0.00216438 -9.60103e-06)
(0.00202564 -0.00216923 -8.43007e-06)
(0.00202093 -0.00217401 -3.66674e-06)
(0.00202183 -0.00217426 7.71145e-07)
(0.00202277 -0.00217445 3.50327e-06)
(0.00202365 -0.00217971 8.50882e-06)
(0.00202906 -0.00217936 1.09425e-05)
(0.00203389 -0.00217847 1.51554e-05)
(0.0020392 -0.00218307 1.92086e-05)
(0.00204001 -0.00218327 2.04936e-05)
(0.00204522 -0.00218288 2.28386e-05)
(0.0020499 -0.00218689 2.39324e-05)
(0.00205502 -0.00219137 2.43984e-05)
(0.00206061 -0.00219153 2.4831e-05)
(0.00206032 -0.00219058 2.40258e-05)
(0.00205953 -0.00219395 2.27098e-05)
(0.00205974 -0.00219355 2.19904e-05)
(0.00205994 -0.0021979 2.07408e-05)
(0.00205966 -0.00220171 1.97003e-05)
(0.00205468 -0.00220076 1.95536e-05)
(0.0020544 -0.00219981 1.93547e-05)
(0.00205882 -0.00220354 1.92164e-05)
(0.00205855 -0.00220725 1.89512e-05)
(0.00205828 -0.00221091 1.8772e-05)
(0.00205801 -0.00221455 1.7564e-05)
(0.00206232 -0.00221357 1.6256e-05)
(0.00206614 -0.00221209 1.54899e-05)
(0.0020649 -0.00221465 1.42528e-05)
(0.00206414 -0.0022132 1.35202e-05)
(0.00206834 -0.00221671 1.25594e-05)
(0.00206805 -0.00222024 1.17592e-05)
(0.00206282 -0.00221875 9.71541e-06)
(0.00206605 -0.00222124 7.19646e-06)
(0.00206927 -0.00221928 4.86002e-06)
(0.00206413 -0.00222221 8.97456e-07)
(0.00206383 -0.00222562 -1.77619e-06)
(0.00206268 -0.00222802 -5.82339e-06)
(0.00206104 -0.00222992 -9.29855e-06)
(0.00206466 -0.00223275 -1.12264e-05)
(0.00205966 -0.00223557 -1.35554e-05)
(0.00205806 -0.00223314 -1.4488e-05)
(0.00206076 -0.00223496 -1.5495e-05)
(0.00206007 -0.00224195 -1.58915e-05)
(0.00205938 -0.00224469 -1.55647e-05)
(0.00205784 -0.00224225 -1.53173e-05)
(0.00206047 -0.00224816 -1.36913e-05)
(0.00205896 -0.00224991 -1.20118e-05)
(0.0020533 -0.00224746 -1.01256e-05)
(0.00205223 -0.00225375 -7.54313e-06)
(0.00205076 -0.00225543 -5.9901e-06)
(0.00204523 -0.00225707 -4.25753e-06)
(0.00203974 -0.00225872 -3.59748e-06)
(0.00203835 -0.00226034 -4.7633e-06)
(0.00203696 -0.00226196 -5.68055e-06)
(0.0020312 -0.00226309 -7.67619e-06)
(0.00202944 -0.00226423 -9.65102e-06)
(0.00203169 -0.00226929 -9.30933e-06)
(0.00203429 -0.00227086 -8.88408e-06)
(0.00203298 -0.00227236 -7.49248e-06)
(0.00203514 -0.00227735 -5.34767e-06)
(0.00203694 -0.00227793 -3.89504e-06)
(0.00203481 -0.00227853 -2.45723e-06)
(0.00203736 -0.00227999 -1.28901e-06)
(0.00203183 -0.00228483 4.77513e-08)
(0.00203317 -0.00228496 1.13118e-06)
(0.00203494 -0.00228549 2.04218e-06)
(0.00203325 -0.00228647 2.86017e-06)
(0.00203499 -0.002287 2.91467e-06)
(0.00203668 -0.00229127 2.97154e-06)
(0.00203876 -0.00229221 1.95569e-06)
(0.00204005 -0.00229228 7.2237e-07)
(0.00204465 -0.00229562 -6.50849e-07)
(0.00204996 -0.00229977 -2.29137e-06)
(0.00204829 -0.00230431 -3.26593e-06)
(0.00204623 -0.00230476 -4.08806e-06)
(0.00205072 -0.00230434 -4.38704e-06)
(0.00204797 -0.00230755 -4.32457e-06)
(0.00204557 -0.00231114 -3.65947e-06)
(0.00204323 -0.00231469 -2.13816e-06)
(0.00204088 -0.00231822 -8.67021e-07)
(0.00203823 -0.00231777 2.49777e-07)
(0.00203556 -0.00232082 6.82146e-07)
(0.00204031 -0.00232428 -3.82483e-07)
(0.00203805 -0.0023242 -1.75155e-06)
(0.00203889 -0.00232719 -4.35464e-06)
(0.00204287 -0.00232976 -6.82809e-06)
(0.00204369 -0.0023327 -9.28441e-06)
(0.00204794 -0.00233561 -1.12804e-05)
(0.0020484 -0.0023415 -1.13679e-05)
(0.00204546 -0.00234397 -1.10609e-05)
(0.00204591 -0.00234638 -8.52266e-06)
(0.00204672 -0.00234919 -6.14197e-06)
(0.0020475 -0.00235195 -4.60529e-06)
(0.00204762 -0.00236057 -3.31474e-06)
(0.0020444 -0.0023625 -3.47979e-06)
(0.00204814 -0.00236477 -3.6546e-06)
(0.00205154 -0.00236993 -3.85975e-06)
(0.00205161 -0.00237177 -3.93912e-06)
(0.00205528 -0.00237398 -3.46396e-06)
(0.00205858 -0.00237902 -3.00585e-06)
(0.00206507 -0.00237759 -2.6813e-06)
(0.00207151 -0.00237613 -2.73392e-06)
(0.00207435 -0.00238072 -3.81878e-06)
(0.00208068 -0.00237929 -4.84444e-06)
(0.0020838 -0.00237471 -5.56598e-06)
(0.00208621 -0.00237256 -5.73991e-06)
(0.00208862 -0.00237357 -4.99212e-06)
(0.00208853 -0.0023722 -4.14738e-06)
(0.00208844 -0.00237083 -3.32201e-06)
(0.00209079 -0.00236875 -2.86081e-06)
(0.0020962 -0.00236361 -2.79613e-06)
(0.00209577 -0.00236194 -2.67392e-06)
(0.002095 -0.00235993 -2.53391e-06)
(0.00209426 -0.00235793 -3.32073e-06)
(0.00209351 -0.00235596 -4.38285e-06)