/*--------------------------------*- C++ -*----------------------------------*\
| =========                 |                                                 |
| \\      /  F ield         | OpenFOAM: The Open Source CFD Toolbox           |
|  \\    /   O peration     | Version:  v1806                                 |
|   \\  /    A nd           | Web:      www.OpenFOAM.com                      |
|    \\/     M anipulation  |                                                 |
\*---------------------------------------------------------------------------*/
FoamFile
{
    version     2.0;
    format      ascii;
    class       volScalarField;
    location    "10000";
    object      epsilon;
}
// * * * * * * * * * * * * * * * * * * * * * * * * * * * * * * * * * * * * * //

dimensions      [0 2 -3 0 0 0 0];


internalField   nonuniform List<scalar> 
1025
(
0.00267716
0.00813092
0.013664
0.0192707
0.0249517
0.0306959
0.0364634
0.0421756
0.0476869
0.0527586
0.0570899
0.0604406
0.0627448
0.0641098
0.0647345
0.06483
0.0645745
0.0641009
0.0635005
0.0628333
0.0621375
0.0614367
0.0607451
0.0600709
0.0594188
0.0587909
0.0581883
0.0576107
0.0570576
0.0565282
0.0560214
0.0555361
0.0550712
0.0546256
0.0541982
0.0537882
0.0533945
0.0530162
0.0526526
0.0523028
0.0519662
0.0516421
0.0513298
0.0510288
0.0507385
0.0504585
0.0501883
0.0499274
0.0496754
0.049432
0.0491968
0.0489694
0.0487495
0.0485369
0.0483313
0.0481324
0.0479398
0.0477535
0.0475732
0.0473987
0.0472298
0.0470662
0.0469079
0.0467546
0.0466061
0.0464624
0.0463233
0.0461886
0.0460583
0.0459321
0.0458099
0.0456917
0.0455774
0.0454667
0.0453597
0.0452562
0.0451561
0.0450594
0.0449659
0.0448756
0.0447883
0.0447041
0.0446228
0.0445444
0.0444687
0.0443958
0.0443256
0.0442579
0.0441928
0.0441302
0.04407
0.0440122
0.0439566
0.0439034
0.0438524
0.0438035
0.0437568
0.0437121
0.0436695
0.0436289
0.0435902
0.0435534
0.0435185
0.0434855
0.0434542
0.0434247
0.0433969
0.0433709
0.0433464
0.0433236
0.0433024
0.0432828
0.0432647
0.0432481
0.043233
0.0432193
0.0432071
0.0431962
0.0431868
0.0431786
0.0431718
0.0431663
0.0431621
0.0431591
0.0431573
0.0431568
0.0431574
0.0431592
0.0431622
0.0431662
0.0431714
0.0431776
0.0431849
0.0431933
0.0432027
0.0432131
0.0432244
0.0432368
0.0432501
0.0432644
0.0432795
0.0432956
0.0433126
0.0433305
0.0433492
0.0433687
0.0433891
0.0434103
0.0434324
0.0434552
0.0434788
0.0435031
0.0435282
0.043554
0.0435806
0.0436078
0.0436358
0.0436645
0.0436938
0.0437238
0.0437544
0.0437857
0.0438176
0.0438501
0.0438833
0.043917
0.0439513
0.0439862
0.0440216
0.0440576
0.0440942
0.0441313
0.0441689
0.044207
0.0442456
0.0442847
0.0443243
0.0443644
0.044405
0.044446
0.0444875
0.0445293
0.0445717
0.0446145
0.0446576
0.0447012
0.0447452
0.0447896
0.0448344
0.0448795
0.0449251
0.0449709
0.0450172
0.0450638
0.0451107
0.045158
0.0452055
0.0452534
0.0453017
0.0453502
0.045399
0.0454481
0.0454975
0.0455472
0.0455971
0.0456474
0.0456978
0.0457486
0.0457995
0.0458508
0.0459022
0.0459539
0.0460058
0.0460579
0.0461103
0.0461628
0.0462156
0.0462685
0.0463216
0.046375
0.0464285
0.0464821
0.046536
0.04659
0.0466441
0.0466985
0.0467529
0.0468075
0.0468623
0.0469172
0.0469722
0.0470273
0.0470826
0.047138
0.0471935
0.0472491
0.0473047
0.0473605
0.0474164
0.0474724
0.0475285
0.0475846
0.0476408
0.0476971
0.0477535
0.0478099
0.0478664
0.0479229
0.0479795
0.0480362
0.0480929
0.0481496
0.0482063
0.0482631
0.04832
0.0483769
0.0484338
0.0484907
0.0485476
0.0486045
0.0486614
0.0487184
0.0487754
0.0488323
0.0488893
0.0489462
0.0490032
0.0490601
0.049117
0.0491739
0.0492307
0.0492876
0.0493444
0.0494012
0.0494579
0.0495146
0.0495713
0.0496279
0.0496845
0.0497411
0.0497976
0.049854
0.0499104
0.0499667
0.050023
0.0500792
0.0501353
0.0501914
0.0502474
0.0503033
0.0503592
0.0504149
0.0504706
0.0505262
0.0505818
0.0506372
0.0506926
0.0507478
0.050803
0.0508581
0.050913
0.0509679
0.0510227
0.0510774
0.0511319
0.0511864
0.0512407
0.0512949
0.0513491
0.0514031
0.0514569
0.0515107
0.0515644
0.0516179
0.0516713
0.0517246
0.0517777
0.0518307
0.0518836
0.0519363
0.0519889
0.0520414
0.0520938
0.0521459
0.052198
0.0522499
0.0523017
0.0523533
0.0524047
0.0524561
0.0525072
0.0525582
0.0526091
0.0526598
0.0527103
0.0527607
0.0528109
0.052861
0.0529109
0.0529606
0.0530102
0.0530596
0.0531088
0.0531579
0.0532067
0.0532555
0.053304
0.0533524
0.0534005
0.0534485
0.0534964
0.053544
0.0535915
0.0536388
0.0536859
0.0537328
0.0537795
0.053826
0.0538724
0.0539185
0.0539645
0.0540103
0.0540558
0.0541012
0.0541464
0.0541914
0.0542362
0.0542807
0.0543251
0.0543693
0.0544133
0.0544571
0.0545006
0.054544
0.0545871
0.0546301
0.0546728
0.0547153
0.0547576
0.0547997
0.0548416
0.0548833
0.0549247
0.0549659
0.0550069
0.0550477
0.0550883
0.0551286
0.0551688
0.0552087
0.0552483
0.0552878
0.055327
0.055366
0.0554047
0.0554432
0.0554815
0.0555196
0.0555574
0.055595
0.0556324
0.0556695
0.0557064
0.055743
0.0557794
0.0558156
0.0558515
0.0558871
0.0559226
0.0559577
0.0559927
0.0560273
0.0560618
0.056096
0.0561299
0.0561636
0.056197
0.0562302
0.0562631
0.0562957
0.0563281
0.0563603
0.0563921
0.0564237
0.0564551
0.0564862
0.056517
0.0565476
0.0565778
0.0566079
0.0566376
0.0566671
0.0566963
0.0567252
0.0567539
0.0567823
0.0568104
0.0568382
0.0568657
0.056893
0.05692
0.0569467
0.0569731
0.0569992
0.0570251
0.0570506
0.0570759
0.0571009
0.0571255
0.0571499
0.057174
0.0571978
0.0572213
0.0572445
0.0572674
0.05729
0.0573123
0.0573343
0.057356
0.0573774
0.0573985
0.0574192
0.0574397
0.0574598
0.0574796
0.0574992
0.0575184
0.0575372
0.0575558
0.057574
0.0575919
0.0576095
0.0576268
0.0576437
0.0576604
0.0576766
0.0576926
0.0577082
0.0577235
0.0577384
0.0577531
0.0577673
0.0577813
0.0577949
0.0578081
0.057821
0.0578336
0.0578458
0.0578576
0.0578691
0.0578803
0.0578911
0.0579016
0.0579116
0.0579214
0.0579307
0.0579397
0.0579484
0.0579567
0.0579646
0.0579721
0.0579793
0.0579861
0.0579925
0.0579986
0.0580042
0.0580095
0.0580144
0.058019
0.0580231
0.0580269
0.0580303
0.0580332
0.0580358
0.058038
0.0580399
0.0580413
0.0580423
0.0580429
0.0580431
0.0580429
0.0580423
0.0580413
0.0580399
0.058038
0.0580358
0.0580331
0.0580301
0.0580266
0.0580226
0.0580183
0.0580135
0.0580083
0.0580027
0.0579966
0.0579902
0.0579832
0.0579759
0.0579681
0.0579598
0.0579512
0.0579421
0.0579325
0.0579225
0.057912
0.0579011
0.0578897
0.0578779
0.0578656
0.0578529
0.0578397
0.0578261
0.057812
0.0577974
0.0577823
0.0577668
0.0577508
0.0577344
0.0577174
0.0577
0.0576821
0.0576637
0.0576449
0.0576255
0.0576057
0.0575854
0.0575646
0.0575433
0.0575215
0.0574992
0.0574764
0.0574532
0.0574294
0.0574051
0.0573803
0.057355
0.0573292
0.0573029
0.0572761
0.0572487
0.0572209
0.0571925
0.0571637
0.0571343
0.0571043
0.0570739
0.0570429
0.0570114
0.0569794
0.0569468
0.0569137
0.0568801
0.0568459
0.0568112
0.056776
0.0567402
0.0567039
0.056667
0.0566296
0.0565917
0.0565532
0.0565141
0.0564745
0.0564344
0.0563936
0.0563524
0.0563105
0.0562681
0.0562252
0.0561817
0.0561376
0.0560929
0.0560477
0.0560019
0.0559556
0.0559087
0.0558612
0.0558131
0.0557645
0.0557152
0.0556654
0.055615
0.0555641
0.0555126
0.0554604
0.0554077
0.0553544
0.0553005
0.055246
0.055191
0.0551353
0.055079
0.0550222
0.0549648
0.0549067
0.0548481
0.0547889
0.054729
0.0546686
0.0546076
0.0545459
0.0544837
0.0544209
0.0543575
0.0542934
0.0542287
0.0541635
0.0540976
0.0540311
0.053964
0.0538963
0.053828
0.0537591
0.0536895
0.0536194
0.0535486
0.0534772
0.0534052
0.0533326
0.0532594
0.0531855
0.0531111
0.053036
0.0529602
0.0528839
0.052807
0.0527294
0.0526512
0.0525724
0.052493
0.0524129
0.0523322
0.052251
0.0521691
0.0520865
0.0520033
0.0519195
0.0518351
0.0517501
0.0516644
0.0515782
0.0514912
0.0514037
0.0513155
0.0512268
0.0511374
0.0510474
0.0509567
0.0508655
0.0507736
0.050681
0.0505879
0.0504942
0.0503998
0.0503048
0.0502092
0.0501129
0.0500161
0.0499186
0.0498205
0.0497218
0.0496225
0.0495225
0.0494219
0.0493208
0.049219
0.0491166
0.0490136
0.04891
0.0488057
0.0487009
0.0485954
0.0484894
0.0483828
0.0482755
0.0481676
0.0480591
0.04795
0.0478404
0.0477301
0.0476192
0.0475077
0.0473956
0.047283
0.0471697
0.0470558
0.0469414
0.0468264
0.0467107
0.0465945
0.0464777
0.0463604
0.0462424
0.0461239
0.0460048
0.0458851
0.0457648
0.045644
0.0455226
0.0454006
0.0452781
0.045155
0.0450314
0.0449072
0.0447824
0.0446571
0.0445312
0.0444048
0.0442778
0.0441503
0.0440222
0.0438936
0.0437645
0.0436348
0.0435046
0.0433738
0.0432425
0.0431108
0.0429784
0.0428456
0.0427122
0.0425784
0.042444
0.0423091
0.0421737
0.0420378
0.0419014
0.0417645
0.0416271
0.0414892
0.0413509
0.0412121
0.0410727
0.0409329
0.0407927
0.0406519
0.0405107
0.040369
0.0402268
0.0400843
0.0399413
0.0397978
0.0396538
0.0395095
0.0393646
0.0392194
0.0390737
0.0389276
0.0387811
0.0386341
0.0384867
0.038339
0.0381908
0.0380422
0.0378932
0.0377439
0.0375942
0.037444
0.0372935
0.0371426
0.0369913
0.0368397
0.0366877
0.0365354
0.0363827
0.0362296
0.0360763
0.0359226
0.0357685
0.0356141
0.0354594
0.0353044
0.0351491
0.0349934
0.0348375
0.0346813
0.0345247
0.0343679
0.0342108
0.0340534
0.0338958
0.0337379
0.0335797
0.0334213
0.0332626
0.0331037
0.0329446
0.0327852
0.0326256
0.0324658
0.0323057
0.0321455
0.031985
0.0318244
0.0316636
0.0315026
0.0313414
0.0311801
0.0310186
0.0308569
0.0306951
0.0305332
0.0303711
0.0302088
0.0300465
0.0298841
0.0297215
0.0295588
0.029396
0.0292332
0.0290703
0.0289073
0.0287442
0.0285811
0.0284179
0.0282546
0.0280914
0.0279281
0.0277648
0.0276015
0.0274382
0.0272748
0.0271115
0.0269482
0.026785
0.0266217
0.0264585
0.0262954
0.0261323
0.0259693
0.0258064
0.0256436
0.0254808
0.0253182
0.0251556
0.0249932
0.0248309
0.0246688
0.0245068
0.0243449
0.0241832
0.0240218
0.0238604
0.0236993
0.0235384
0.0233777
0.0232172
0.023057
0.022897
0.0227373
0.0225777
0.0224185
0.0222596
0.022101
0.0219427
0.0217846
0.021627
0.0214696
0.0213126
0.021156
0.0209997
0.0208438
0.0206883
0.0205332
0.0203785
0.0202242
0.0200704
0.0199171
0.0197641
0.0196117
0.0194597
0.0193083
0.0191573
0.0190069
0.018857
0.0187076
0.0185588
0.0184106
0.0182629
0.0181159
0.0179694
0.0178236
0.0176784
0.0175338
0.0173899
0.0172466
0.0171041
0.0169622
0.0168211
0.0166806
0.016541
0.0164021
0.0162639
0.0161265
0.0159899
0.0158541
0.0157191
0.015585
0.0154517
0.0153193
0.0151877
0.0150571
0.0149273
0.0147985
0.0146706
0.0145436
0.0144176
0.0142926
0.0141686
0.0140455
0.0139235
0.0138026
0.0136826
0.0135638
0.013446
0.0133293
0.0132137
0.0130993
0.0129859
0.0128738
0.0127628
0.0126529
0.0125443
0.0124369
0.0123307
0.0122258
0.0121221
0.0120196
0.0119185
0.0118187
0.0117201
0.0116229
0.0115271
0.0114326
0.0113395
0.0112477
0.0111574
0.0110685
0.010981
0.010895
0.0108105
0.0107274
0.0106458
0.0105657
0.0104872
0.0104102
0.0103347
0.0102609
0.0101886
0.0101179
0.0100488
0.00998136
0.00991557
0.00985146
0.00978903
0.0097283
0.00966929
0.00961202
0.0095565
0.00950274
0.00945078
0.00940062
0.00935229
0.0093058
0.00926118
0.00921844
0.00917761
0.0091387
0.00910173
0.00906673
0.00903372
0.00900272
0.00897375
0.00894685
0.00892203
0.00889931
0.00887873
0.00886032
0.0088441
0.00883009
0.00881834
0.00880885
0.00880168
0.00879686
0.0087944
)
;

boundaryField
{
    INLET
    {
        type            cyclic;
    }
    OUTLET
    {
        type            cyclic;
    }
    CENTER
    {
        type            symmetryPlane;
    }
    WALL
    {
        type            fixedValue;
        value           uniform 1e-08;
    }
    frontAndBackPlanes
    {
        type            empty;
    }
}


// ************************************************************************* //
