/*--------------------------------*- C++ -*----------------------------------*\
| =========                 |                                                 |
| \\      /  F ield         | OpenFOAM: The Open Source CFD Toolbox           |
|  \\    /   O peration     | Version:  v1806                                 |
|   \\  /    A nd           | Web:      www.OpenFOAM.com                      |
|    \\/     M anipulation  |                                                 |
\*---------------------------------------------------------------------------*/
FoamFile
{
    version     2.0;
    format      ascii;
    class       volVectorField;
    location    "10000";
    object      grad(k);
}
// * * * * * * * * * * * * * * * * * * * * * * * * * * * * * * * * * * * * * //

dimensions      [0 1 -2 0 0 0 0];


internalField   nonuniform List<vector> 
1025
(
(0 1.44816 0)
(0 4.01534 0)
(-5.3171e-19 7.00784 0)
(-2.1169e-18 10.0057 0)
(0 12.9549 0)
(0 15.743 0)
(-4.17452e-18 18.1612 0)
(4.15502e-18 19.9023 0)
(0 20.6703 0)
(0 20.3737 0)
(0 19.2093 0)
(0 17.5378 0)
(0 15.6982 0)
(-1.61582e-17 13.9179 0)
(-1.60824e-17 12.3137 0)
(-1.60074e-17 10.9258 0)
(-1.59322e-17 9.75088 0)
(0 8.76594 0)
(0 7.94183 0)
(0 7.25026 0)
(0 6.66658 0)
(3.11248e-17 6.17043 0)
(0 5.74539 0)
(0 5.37839 0)
(1.53444e-17 5.05909 0)
(0 4.77927 0)
(0 4.53238 0)
(-1.5129e-17 4.31316 0)
(0 4.11738 0)
(-1.49886e-17 3.94159 0)
(0 3.78295 0)
(1.48506e-17 3.63915 0)
(0 3.50824 0)
(0 3.38859 0)
(0 3.27884 0)
(0 3.17785 0)
(0 3.08464 0)
(0 2.99834 0)
(0 2.91823 0)
(0 2.84369 0)
(0 2.77416 0)
(-2.83342e-17 2.70917 0)
(0 2.6483 0)
(2.80698e-17 2.59117 0)
(0 2.53747 0)
(0 2.48689 0)
(-2.76765e-17 2.43919 0)
(0 2.39413 0)
(0 2.35151 0)
(0 2.31113 0)
(0 2.27283 0)
(0 2.23647 0)
(0 2.20189 0)
(-5.35717e-17 2.16899 0)
(0 2.13764 0)
(0 2.10774 0)
(0 2.0792 0)
(0 2.05193 0)
(0 2.02585 0)
(0 2.00089 0)
(0 1.97699 0)
(0 1.95407 0)
(0 1.93208 0)
(0 1.91097 0)
(-5.08643e-17 1.8907 0)
(2.53154e-17 1.8712 0)
(0 1.85245 0)
(0 1.83441 0)
(-2.49574e-17 1.81702 0)
(-2.48449e-17 1.80027 0)
(-2.47242e-17 1.78412 0)
(0 1.76854 0)
(2.44954e-17 1.75351 0)
(2.43781e-17 1.73898 0)
(-2.42708e-17 1.72495 0)
(0 1.71139 0)
(0 1.69827 0)
(0 1.68557 0)
(0 1.67329 0)
(0 1.66139 0)
(0 1.64986 0)
(0 1.63868 0)
(-4.67499e-17 1.62785 0)
(0 1.61733 0)
(0 1.60713 0)
(0 1.59723 0)
(0 1.58761 0)
(0 1.57826 0)
(0 1.56918 0)
(0 1.56035 0)
(0 1.55176 0)
(0 1.5434 0)
(0 1.53527 0)
(0 1.52735 0)
(0 1.51963 0)
(0 1.51211 0)
(0 1.50479 0)
(0 1.49765 0)
(-4.33575e-17 1.49068 0)
(0 1.48388 0)
(4.29565e-17 1.47725 0)
(0 1.47077 0)
(0 1.46445 0)
(0 1.45827 0)
(0 1.45223 0)
(-4.19622e-17 1.44633 0)
(0 1.44056 0)
(0 1.43492 0)
(-4.1372e-17 1.4294 0)
(0 1.42399 0)
(0 1.4187 0)
(0 1.41352 0)
(0 1.40845 0)
(0 1.40347 0)
(4.02215e-17 1.3986 0)
(0 1.39382 0)
(0 1.38913 0)
(-3.9661e-17 1.38453 0)
(-3.94718e-17 1.38002 0)
(-3.92902e-17 1.37559 0)
(0 1.37124 0)
(0 1.36697 0)
(-3.87382e-17 1.36277 0)
(0 1.35865 0)
(0 1.35459 0)
(-3.81959e-17 1.3506 0)
(0 1.34668 0)
(0 1.34282 0)
(0 1.33902 0)
(-3.74873e-17 1.33528 0)
(0 1.3316 0)
(0 1.32798 0)
(0 1.3244 0)
(-3.67891e-17 1.32088 0)
(0 1.3174 0)
(-3.64447e-17 1.31398 0)
(0 1.3106 0)
(-3.61017e-17 1.30727 0)
(0 1.30398 0)
(3.57651e-17 1.30073 0)
(0 1.29752 0)
(0 1.29436 0)
(0 1.29122 0)
(-7.02023e-17 1.28813 0)
(-3.49344e-17 1.28507 0)
(0 1.28205 0)
(-3.46101e-17 1.27906 0)
(0 1.2761 0)
(0 1.27317 0)
(-3.41281e-17 1.27027 0)
(0 1.2674 0)
(0 1.26456 0)
(-3.36466e-17 1.26174 0)
(0 1.25895 0)
(0 1.25619 0)
(0 1.25345 0)
(0 1.25073 0)
(0 1.24804 0)
(6.54221e-17 1.24536 0)
(-3.25622e-17 1.24271 0)
(0 1.24008 0)
(0 1.23747 0)
(0 1.23487 0)
(0 1.2323 0)
(0 1.22974 0)
(0 1.22719 0)
(-3.15079e-17 1.22467 0)
(0 1.22215 0)
(0 1.21966 0)
(-3.10824e-17 1.21718 0)
(-3.09226e-17 1.21471 0)
(0 1.21225 0)
(0 1.2098 0)
(-3.04951e-17 1.20737 0)
(0 1.20496 0)
(-6.03644e-17 1.20255 0)
(0 1.20015 0)
(5.98187e-17 1.19776 0)
(0 1.19538 0)
(0 1.19301 0)
(0 1.19065 0)
(5.87564e-17 1.1883 0)
(0 1.18596 0)
(-5.81753e-17 1.18362 0)
(5.79207e-17 1.18129 0)
(0 1.17897 0)
(0 1.17665 0)
(0 1.17434 0)
(0 1.17204 0)
(0 1.16975 0)
(0 1.16745 0)
(0 1.16517 0)
(0 1.16289 0)
(0 1.16061 0)
(0 1.15833 0)
(0 1.15606 0)
(5.46896e-17 1.15379 0)
(0 1.15153 0)
(0 1.14927 0)
(0 1.14701 0)
(0 1.14476 0)
(0 1.14251 0)
(-5.32056e-17 1.14026 0)
(0 1.13801 0)
(0 1.13577 0)
(-5.24674e-17 1.13352 0)
(0 1.13128 0)
(5.20035e-17 1.12904 0)
(0 1.1268 0)
(5.14976e-17 1.12456 0)
(0 1.12232 0)
(0 1.12008 0)
(0 1.11785 0)
(0 1.11561 0)
(0 1.11337 0)
(0 1.11113 0)
(0 1.1089 0)
(0 1.10666 0)
(0 1.10443 0)
(0 1.10219 0)
(-4.88823e-17 1.09995 0)
(0 1.09771 0)
(-9.68702e-17 1.09547 0)
(0 1.09323 0)
(-4.7996e-17 1.09099 0)
(9.54726e-17 1.08874 0)
(0 1.0865 0)
(0 1.08425 0)
(-4.70993e-17 1.08201 0)
(-4.68492e-17 1.07976 0)
(0 1.07751 0)
(0 1.07526 0)
(0 1.073 0)
(0 1.07074 0)
(0 1.06849 0)
(-1.36795e-16 1.06623 0)
(0 1.06398 0)
(0 1.06171 0)
(0 1.05945 0)
(-4.47125e-17 1.05718 0)
(-4.45244e-17 1.05491 0)
(0 1.05264 0)
(-4.41163e-17 1.05037 0)
(0 1.04809 0)
(1.31147e-16 1.04581 0)
(0 1.04353 0)
(0 1.04125 0)
(0 1.03897 0)
(0 1.03668 0)
(4.26932e-17 1.03439 0)
(0 1.0321 0)
(0 1.0298 0)
(0 1.02751 0)
(0 1.02521 0)
(0 1.0229 0)
(0 1.02059 0)
(-8.2589e-17 1.01829 0)
(-8.22043e-17 1.01598 0)
(0 1.01367 0)
(-8.14455e-17 1.01135 0)
(-8.10713e-17 1.00904 0)
(0 1.00672 0)
(0 1.00439 0)
(0 1.00206 0)
(0 0.999733 0)
(0 0.997403 0)
(0 0.99507 0)
(0 0.992732 0)
(0 0.990394 0)
(-7.76809e-17 0.988052 0)
(0 0.985707 0)
(0 0.983359 0)
(0 0.981008 0)
(-7.62818e-17 0.978658 0)
(-7.5899e-17 0.976305 0)
(0 0.973947 0)
(0 0.971587 0)
(0 0.969224 0)
(0 0.966856 0)
(0 0.964488 0)
(-1.47567e-16 0.962117 0)
(-7.34252e-17 0.959743 0)
(0 0.957365 0)
(0 0.954986 0)
(0 0.952607 0)
(0 0.950224 0)
(-7.17338e-17 0.947839 0)
(0 0.94545 0)
(0 0.943059 0)
(-7.07275e-17 0.940665 0)
(0 0.93827 0)
(0 0.935872 0)
(0 0.933472 0)
(6.93834e-17 0.931068 0)
(0 0.928663 0)
(0 0.926256 0)
(0 0.923846 0)
(0 0.921435 0)
(0 0.91902 0)
(0 0.916603 0)
(0 0.914185 0)
(0 0.911765 0)
(0 0.909342 0)
(0 0.906917 0)
(0 0.90449 0)
(0 0.902062 0)
(6.53172e-17 0.899632 0)
(0 0.8972 0)
(-6.46788e-17 0.894765 0)
(0 0.892329 0)
(0 0.889892 0)
(0 0.887451 0)
(0 0.885008 0)
(0 0.882565 0)
(0 0.88012 0)
(0 0.877672 0)
(0 0.875225 0)
(0 0.872773 0)
(-6.17371e-17 0.87032 0)
(6.14148e-17 0.867866 0)
(0 0.86541 0)
(-6.08501e-17 0.862954 0)
(0 0.860495 0)
(0 0.858035 0)
(0 0.855574 0)
(5.97175e-17 0.853112 0)
(-5.94493e-17 0.850647 0)
(0 0.848183 0)
(0 0.845716 0)
(-5.85939e-17 0.843246 0)
(0 0.840777 0)
(0 0.838306 0)
(0 0.835833 0)
(0 0.833361 0)
(0 0.830888 0)
(0 0.828413 0)
(5.67108e-17 0.825936 0)
(0 0.823459 0)
(0 0.82098 0)
(-5.59319e-17 0.818499 0)
(0 0.816019 0)
(0 0.813538 0)
(0 0.811056 0)
(0 0.808573 0)
(0 0.806089 0)
(0 0.803605 0)
(0 0.801119 0)
(0 0.798633 0)
(-1.07219e-16 0.796147 0)
(0 0.79366 0)
(0 0.791171 0)
(1.05721e-16 0.788681 0)
(1.05248e-16 0.786191 0)
(0 0.783702 0)
(0 0.781211 0)
(0 0.778721 0)
(0 0.776228 0)
(0 0.773735 0)
(0 0.771243 0)
(0 0.768751 0)
(0 0.766257 0)
(1.00885e-16 0.763763 0)
(0 0.76127 0)
(0 0.758776 0)
(0 0.756282 0)
(0 0.753788 0)
(0 0.751293 0)
(-9.80816e-17 0.748799 0)
(-9.75844e-17 0.746303 0)
(0 0.743808 0)
(0 0.741314 0)
(0 0.738819 0)
(-9.57749e-17 0.736323 0)
(-9.53436e-17 0.733827 0)
(9.49163e-17 0.731332 0)
(0 0.728838 0)
(0 0.726343 0)
(-9.35741e-17 0.723849 0)
(0 0.721354 0)
(0 0.71886 0)
(0 0.716367 0)
(0 0.713873 0)
(0 0.711378 0)
(0 0.708884 0)
(0 0.706392 0)
(0 0.703899 0)
(-8.96901e-17 0.701406 0)
(8.92741e-17 0.698913 0)
(0 0.696421 0)
(0 0.69393 0)
(-8.80492e-17 0.691441 0)
(0 0.688951 0)
(0 0.686461 0)
(0 0.683971 0)
(-8.63967e-17 0.681482 0)
(-8.59757e-17 0.678994 0)
(0 0.676506 0)
(0 0.674019 0)
(0 0.671534 0)
(0 0.669048 0)
(8.39977e-17 0.666563 0)
(-8.35998e-17 0.664079 0)
(0 0.661595 0)
(0 0.659113 0)
(0 0.656631 0)
(0 0.65415 0)
(0 0.65167 0)
(0 0.649192 0)
(0 0.646713 0)
(0 0.644235 0)
(0 0.641759 0)
(-7.97583e-17 0.639284 0)
(-7.93994e-17 0.636809 0)
(0 0.634336 0)
(0 0.631862 0)
(0 0.62939 0)
(0 0.62692 0)
(0 0.624451 0)
(-7.71714e-17 0.621983 0)
(0 0.619515 0)
(0 0.617049 0)
(-7.61173e-17 0.614584 0)
(0 0.61212 0)
(0 0.609657 0)
(0 0.607196 0)
(-1.49336e-16 0.604736 0)
(-7.43533e-17 0.602277 0)
(0 0.59982 0)
(0 0.597363 0)
(0 0.594907 0)
(-7.29698e-17 0.592454 0)
(0 0.590003 0)
(0 0.587552 0)
(0 0.585102 0)
(0 0.582654 0)
(0 0.580207 0)
(0 0.577762 0)
(-1.41219e-16 0.575319 0)
(0 0.572877 0)
(0 0.570435 0)
(0 0.567996 0)
(-1.3854e-16 0.565558 0)
(0 0.563123 0)
(0 0.560688 0)
(0 0.558255 0)
(0 0.555824 0)
(0 0.553394 0)
(0 0.550966 0)
(0 0.548541 0)
(0 0.546116 0)
(0 0.543693 0)
(0 0.541272 0)
(0 0.538853 0)
(0 0.536435 0)
(-2.60706e-16 0.534019 0)
(0 0.531605 0)
(1.2916e-16 0.529193 0)
(0 0.526784 0)
(0 0.524375 0)
(-1.27335e-16 0.521968 0)
(0 0.519563 0)
(0 0.51716 0)
(-2.51122e-16 0.51476 0)
(0 0.51236 0)
(0 0.509963 0)
(0 0.507568 0)
(0 0.505175 0)
(0 0.502785 0)
(-1.22051e-16 0.500396 0)
(0 0.498009 0)
(-1.20936e-16 0.495625 0)
(0 0.493242 0)
(0 0.490861 0)
(0 0.488482 0)
(0 0.486106 0)
(0 0.483732 0)
(-2.35091e-16 0.48136 0)
(0 0.478991 0)
(0 0.476623 0)
(0 0.474258 0)
(1.15368e-16 0.471895 0)
(0 0.469534 0)
(0 0.467176 0)
(2.27514e-16 0.46482 0)
(0 0.462466 0)
(0 0.460114 0)
(0 0.457765 0)
(0 0.455419 0)
(-1.1113e-16 0.453074 0)
(0 0.450732 0)
(-1.1009e-16 0.448392 0)
(0 0.446055 0)
(-1.09041e-16 0.44372 0)
(0 0.441388 0)
(0 0.439058 0)
(0 0.436731 0)
(0 0.434406 0)
(-2.13036e-16 0.432084 0)
(0 0.429765 0)
(0 0.427448 0)
(1.05039e-16 0.425133 0)
(0 0.422822 0)
(-2.08065e-16 0.420513 0)
(0 0.418206 0)
(0 0.415903 0)
(-1.02596e-16 0.413604 0)
(0 0.411308 0)
(0 0.409016 0)
(0 0.406728 0)
(0 0.404445 0)
(1.00217e-16 0.402167 0)
(1.9949e-16 0.399894 0)
(-9.92772e-17 0.397642 0)
(0 0.395389 0)
(-1.9671e-16 0.393116 0)
(-9.78776e-17 0.390843 0)
(-1.94855e-16 0.388572 0)
(0 0.386303 0)
(-9.6517e-17 0.384036 0)
(9.60573e-17 0.381772 0)
(0 0.379511 0)
(-1.90344e-16 0.377252 0)
(0 0.374996 0)
(0 0.372743 0)
(-2.81531e-16 0.370494 0)
(0 0.368247 0)
(0 0.366004 0)
(-9.25315e-17 0.363763 0)
(0 0.361526 0)
(1.83301e-16 0.359292 0)
(0 0.357061 0)
(0 0.354834 0)
(0 0.352609 0)
(0 0.350388 0)
(-1.79039e-16 0.34817 0)
(0 0.345956 0)
(0 0.343745 0)
(0 0.341536 0)
(-3.51466e-16 0.339331 0)
(0 0.33713 0)
(0 0.334932 0)
(1.73253e-16 0.332738 0)
(0 0.330546 0)
(0 0.328359 0)
(1.70842e-16 0.326174 0)
(-1.70053e-16 0.323993 0)
(0 0.321816 0)
(0 0.319642 0)
(0 0.317472 0)
(0 0.315306 0)
(3.3217e-16 0.313142 0)
(0 0.310984 0)
(0 0.308828 0)
(0 0.306676 0)
(0 0.304526 0)
(0 0.30238 0)
(0 0.300241 0)
(-1.60727e-16 0.298105 0)
(0 0.295969 0)
(0 0.293837 0)
(1.5862e-16 0.291712 0)
(0 0.289591 0)
(0 0.287471 0)
(0 0.285354 0)
(-1.55419e-16 0.283242 0)
(0 0.281134 0)
(0 0.279034 0)
(1.53171e-16 0.276934 0)
(0 0.274837 0)
(0 0.272747 0)
(0 0.270661 0)
(0 0.268578 0)
(-2.99305e-16 0.266496 0)
(0 0.264419 0)
(0 0.262348 0)
(0 0.260281 0)
(-1.47054e-16 0.25822 0)
(0 0.25616 0)
(-1.45538e-16 0.254104 0)
(0 0.252053 0)
(0 0.250008 0)
(-1.43565e-16 0.247965 0)
(0 0.245925 0)
(0 0.243892 0)
(-1.41644e-16 0.241863 0)
(0 0.239839 0)
(0 0.237817 0)
(1.39544e-16 0.235799 0)
(-1.38858e-16 0.233785 0)
(0 0.231777 0)
(0 0.229775 0)
(0 0.227775 0)
(2.72796e-16 0.225779 0)
(0 0.223789 0)
(0 0.221803 0)
(0 0.219821 0)
(0 0.217844 0)
(-1.33181e-16 0.215871 0)
(-2.65528e-16 0.213905 0)
(0 0.211943 0)
(0 0.209984 0)
(1.30715e-16 0.208029 0)
(0 0.20608 0)
(0 0.204135 0)
(1.28924e-16 0.202195 0)
(0 0.200259 0)
(0 0.198327 0)
(0 0.196401 0)
(0 0.19448 0)
(0 0.192564 0)
(0 0.190652 0)
(0 0.188745 0)
(0 0.186844 0)
(-1.23474e-16 0.184947 0)
(1.23115e-16 0.183055 0)
(-2.44807e-16 0.181169 0)
(0 0.179285 0)
(0 0.177407 0)
(-1.2066e-16 0.175536 0)
(-1.20147e-16 0.173668 0)
(1.19469e-16 0.171805 0)
(0 0.169948 0)
(2.36932e-16 0.168097 0)
(0 0.166249 0)
(0 0.164406 0)
(-1.16832e-16 0.162569 0)
(0 0.160737 0)
(0 0.158909 0)
(0 0.157089 0)
(0 0.155273 0)
(-1.14002e-16 0.153461 0)
(0 0.151655 0)
(0 0.149855 0)
(0 0.14806 0)
(0 0.146269 0)
(2.22903e-16 0.144484 0)
(0 0.142704 0)
(0 0.14093 0)
(-1.09862e-16 0.139162 0)
(0 0.137398 0)
(0 0.13564 0)
(0 0.133887 0)
(0 0.132141 0)
(0 0.1304 0)
(0 0.128664 0)
(0 0.126933 0)
(0 0.125208 0)
(0 0.123488 0)
(-2.09662e-16 0.121774 0)
(0 0.120066 0)
(0 0.118364 0)
(0 0.116667 0)
(0 0.114975 0)
(2.04845e-16 0.113289 0)
(0 0.111609 0)
(0 0.109935 0)
(-2.01915e-16 0.108266 0)
(-2.00957e-16 0.106603 0)
(0 0.104945 0)
(0 0.103295 0)
(-1.98136e-16 0.10165 0)
(0 0.10001 0)
(0 0.0983754 0)
(0 0.0967472 0)
(-1.94497e-16 0.0951249 0)
(-1.93608e-16 0.0935088 0)
(0 0.0918987 0)
(0 0.0902938 0)
(0 0.0886952 0)
(0 0.0871029 0)
(-1.8907e-16 0.0855159 0)
(-1.8823e-16 0.0839353 0)
(0 0.0823611 0)
(0 0.0807925 0)
(-3.71099e-16 0.0792296 0)
(0 0.0776732 0)
(0 0.0761225 0)
(0 0.0745777 0)
(0 0.0730395 0)
(-1.81378e-16 0.0715081 0)
(-1.80412e-16 0.0699826 0)
(0 0.0684623 0)
(0 0.0669481 0)
(0 0.0654408 0)
(0 0.0639396 0)
(0 0.0624447 0)
(0 0.060956 0)
(0 0.0594736 0)
(0 0.0579976 0)
(0 0.0565272 0)
(-1.72161e-16 0.0550634 0)
(0 0.053606 0)
(0 0.0521551 0)
(0 0.0507107 0)
(0 0.0492724 0)
(0 0.04784 0)
(0 0.0464143 0)
(-1.66575e-16 0.0449954 0)
(0 0.0435825 0)
(0 0.0421759 0)
(0 0.0407762 0)
(0 0.0393832 0)
(0 0.037996 0)
(-1.61957e-16 0.0366152 0)
(-1.61186e-16 0.0352414 0)
(-1.60423e-16 0.0338739 0)
(-1.59667e-16 0.032513 0)
(0 0.0311587 0)
(-1.58176e-16 0.0298109 0)
(0 0.0284697 0)
(-1.56713e-16 0.027135 0)
(-1.55991e-16 0.0258071 0)
(-1.55276e-16 0.0244858 0)
(0 0.0231713 0)
(-1.53726e-16 0.0218632 0)
(-1.53032e-16 0.0205613 0)
(0 0.0192664 0)
(-1.51662e-16 0.0179784 0)
(0 0.0166972 0)
(0 0.0154224 0)
(0 0.0141541 0)
(0 0.0128925 0)
(-1.48212e-16 0.0116379 0)
(-1.47438e-16 0.0103905 0)
(0 0.00914926 0)
(0 0.00791466 0)
(0 0.00668721 0)
(0 0.00546653 0)
(0 0.00425228 0)
(0 0.00304496 0)
(0 0.00184478 0)
(0 0.000651479 0)
(0 -0.000535165 0)
(-1.40703e-16 -0.00171483 0)
(0 -0.00288798 0)
(0 -0.00405426 0)
(0 -0.00521353 0)
(0 -0.0063661 0)
(0 -0.00751142 0)
(0 -0.00864998 0)
(1.36179e-16 -0.00978155 0)
(-1.35417e-16 -0.0109063 0)
(0 -0.0120241 0)
(0 -0.0131349 0)
(0 -0.0142389 0)
(-1.32972e-16 -0.0153357 0)
(0 -0.0164254 0)
(0 -0.0175082 0)
(0 -0.0185843 0)
(-1.30514e-16 -0.0196533 0)
(0 -0.0207149 0)
(-3.87658e-16 -0.0217697 0)
(0 -0.0228176 0)
(0 -0.0238585 0)
(0 -0.0248922 0)
(0 -0.0259187 0)
(0 -0.0269383 0)
(-1.25673e-16 -0.0279505 0)
(0 -0.028956 0)
(0 -0.0299546 0)
(0 -0.030946 0)
(0 -0.03193 0)
(0 -0.032907 0)
(0 -0.033877 0)
(-1.21613e-16 -0.0348397 0)
(-1.21005e-16 -0.0357952 0)
(0 -0.0367438 0)
(0 -0.0376851 0)
(-2.38601e-16 -0.0386191 0)
(0 -0.039546 0)
(-1.18218e-16 -0.0404656 0)
(0 -0.041378 0)
(0 -0.0422832 0)
(0 -0.0431813 0)
(-2.32064e-16 -0.0440721 0)
(0 -0.0449557 0)
(0 -0.0458322 0)
(2.28773e-16 -0.0467016 0)
(0 -0.0475636 0)
(-1.13391e-16 -0.0484179 0)
(0 -0.049265 0)
(0 -0.0501051 0)
(0 -0.0509381 0)
(0 -0.0517634 0)
(0 -0.0525814 0)
(0 -0.0533922 0)
(0 -0.0541959 0)
(0 -0.0549923 0)
(4.34654e-16 -0.0557813 0)
(0 -0.0565631 0)
(0 -0.0573374 0)
(0 -0.0581044 0)
(-2.13224e-16 -0.0588639 0)
(0 -0.059616 0)
(0 -0.0603607 0)
(0 -0.0610982 0)
(-2.09273e-16 -0.061828 0)
(0 -0.0625502 0)
(0 -0.0632652 0)
(0 -0.0639731 0)
(0 -0.0646736 0)
(-2.04474e-16 -0.0653663 0)
(-2.03369e-16 -0.0660512 0)
(-2.02518e-16 -0.0667289 0)
(0 -0.0673994 0)
(0 -0.0680622 0)
(-1.99772e-16 -0.0687172 0)
(0 -0.0693649 0)
(0 -0.0700054 0)
(0 -0.0706384 0)
(0 -0.0712638 0)
(0 -0.0718817 0)
(0 -0.072492 0)
(0 -0.0730948 0)
(-1.92289e-16 -0.0736899 0)
(-1.9142e-16 -0.0742771 0)
(0 -0.0748565 0)
(0 -0.0754286 0)
(0 -0.0759934 0)
(0 -0.0765506 0)
(0 -0.0771002 0)
(-1.86161e-16 -0.0776419 0)
(0 -0.0781761 0)
(1.84338e-16 -0.0787026 0)
(-1.83539e-16 -0.079221 0)
(0 -0.0797317 0)
(0 -0.0802352 0)
(0 -0.0807309 0)
(-1.80028e-16 -0.0812185 0)
(0 -0.0816983 0)
(0 -0.0821702 0)
(-1.77482e-16 -0.0826339 0)
(-1.76741e-16 -0.0830897 0)
(-1.75915e-16 -0.0835381 0)
(0 -0.0839791 0)
(0 -0.0844118 0)
(0 -0.0848366 0)
(0 -0.0852537 0)
(0 -0.0856629 0)
(0 -0.0860641 0)
(0 -0.0864573 0)
(0 -0.0868426 0)
(0 -0.0872194 0)
(0 -0.0875881 0)
(0 -0.0879491 0)
(0 -0.0883025 0)
(0 -0.0886477 0)
(0 -0.0889848 0)
(0 -0.089314 0)
(0 -0.089635 0)
(0 -0.089948 0)
(0 -0.0902527 0)
(0 -0.0905492 0)
(0 -0.0908375 0)
(0 -0.0911175 0)
(0 -0.0913892 0)
(0 -0.0916522 0)
(1.57149e-16 -0.091907 0)
(0 -0.0921539 0)
(-1.55705e-16 -0.0923919 0)
(0 -0.0926215 0)
(-1.54216e-16 -0.0928426 0)
(-1.53518e-16 -0.0930548 0)
(-3.05512e-16 -0.0932584 0)
(0 -0.0934541 0)
(0 -0.0936417 0)
(0 -0.0938208 0)
(0 -0.0939907 0)
(0 -0.094152 0)
(0 -0.0943052 0)
(0 -0.0944492 0)
(-1.47182e-16 -0.094584 0)
(0 -0.0947106 0)
(0 -0.0948289 0)
(-1.4504e-16 -0.0949379 0)
(0 -0.095038 0)
(0 -0.0951293 0)
(0 -0.0952117 0)
(0 -0.095285 0)
(0 -0.0953487 0)
(-1.41055e-16 -0.0954034 0)
(0 -0.0954496 0)
(-1.39717e-16 -0.0954872 0)
(0 -0.0955158 0)
(0 -0.0955352 0)
(-2.75458e-16 -0.0955448 0)
(0 -0.0955452 0)
(0 -0.0955372 0)
(-1.35851e-16 -0.0955192 0)
(-4.05602e-16 -0.0954911 0)
(0 -0.0954544 0)
(0 -0.0954083 0)
(0 -0.0953527 0)
(-1.32712e-16 -0.0952876 0)
(0 -0.0952127 0)
(-1.31476e-16 -0.0951282 0)
(-1.30866e-16 -0.0950339 0)
(0 -0.0949304 0)
(-3.88845e-16 -0.0948166 0)
(-2.58045e-16 -0.0946926 0)
(-1.28387e-16 -0.0945588 0)
(1.27806e-16 -0.0944159 0)
(0 -0.0942633 0)
(-1.26612e-16 -0.0941002 0)
(-1.26e-16 -0.0939269 0)
(0 -0.0937442 0)
(1.24839e-16 -0.0935522 0)
(1.24244e-16 -0.0933502 0)
(0 -0.0931381 0)
(0 -0.0929159 0)
(-1.22536e-16 -0.0926827 0)
(0 -0.0924395 0)
(-2.4279e-16 -0.092186 0)
(0 -0.0919221 0)
(-1.20232e-16 -0.0916478 0)
(0 -0.091363 0)
(0 -0.0910685 0)
(2.37098e-16 -0.0907636 0)
(-1.18012e-16 -0.0904477 0)
(0 -0.0901211 0)
(1.16913e-16 -0.0897846 0)
(0 -0.0894375 0)
(0 -0.0890796 0)
(0 -0.0887111 0)
(0 -0.0883319 0)
(0 -0.087942 0)
(0 -0.0875412 0)
(0 -0.0871297 0)
(0 -0.0867076 0)
(0 -0.0862739 0)
(0 -0.0858295 0)
(0 -0.0853744 0)
(-1.10471e-16 -0.0849076 0)
(0 -0.0844305 0)
(0 -0.0839433 0)
(0 -0.0834445 0)
(-1.0842e-16 -0.0829345 0)
(0 -0.0824143 0)
(0 -0.0818827 0)
(0 -0.0813402 0)
(0 -0.0807868 0)
(-2.11891e-16 -0.0802219 0)
(0 -0.0796461 0)
(-1.04928e-16 -0.0790599 0)
(0 -0.0784635 0)
(-1.0393e-16 -0.0778554 0)
(2.06909e-16 -0.0772364 0)
(1.02983e-16 -0.0766074 0)
(-1.02484e-16 -0.0759668 0)
(1.02021e-16 -0.0753155 0)
(-1.01532e-16 -0.0746533 0)
(0 -0.0739803 0)
(-1.00568e-16 -0.0732973 0)
(0 -0.0726028 0)
(0 -0.071897 0)
(9.91842e-17 -0.0711815 0)
(0 -0.0704554 0)
(0 -0.0697185 0)
(0 -0.0689719 0)
(9.73601e-17 -0.068215 0)
(0 -0.0674471 0)
(0 -0.0666688 0)
(0 -0.0658806 0)
(0 -0.0650816 0)
(-9.50654e-17 -0.0642723 0)
(1.89281e-16 -0.0634532 0)
(0 -0.0626249 0)
(0 -0.0617874 0)
(0 -0.0609401 0)
(0 -0.0600831 0)
(0 -0.0592156 0)
(-9.20188e-17 -0.058338 0)
(0 -0.057451 0)
(0 -0.0565544 0)
(0 -0.0556492 0)
(0 -0.0547355 0)
(8.98709e-17 -0.053813 0)
(0 -0.0528816 0)
(-8.90208e-17 -0.0519406 0)
(0 -0.050991 0)
(0 -0.0500335 0)
(0 -0.0490674 0)
(0 -0.0480928 0)
(-1.73929e-16 -0.0471094 0)
(0 -0.0461171 0)
(0 -0.0451174 0)
(0 -0.0441105 0)
(0 -0.043095 0)
(0 -0.0420716 0)
(0 -0.0410413 0)
(-8.41563e-17 -0.0400029 0)
(-8.37403e-17 -0.0389564 0)
(0 -0.0379026 0)
(0 -0.0368422 0)
(0 -0.0357745 0)
(0 -0.0346997 0)
(0 -0.0336186 0)
(-8.14259e-17 -0.0325305 0)
(0 -0.0314353 0)
(0 -0.0303334 0)
(-1.60575e-16 -0.0292242 0)
(0 -0.0281082 0)
(-1.59067e-16 -0.0269856 0)
(0 -0.0258558 0)
(-1.57588e-16 -0.0247195 0)
(0 -0.0235775 0)
(0 -0.0224298 0)
(0 -0.0212757 0)
(0 -0.0201153 0)
(0 -0.0189486 0)
(0 -0.0177749 0)
(0 -0.0165948 0)
(0 -0.0154092 0)
(-7.55436e-17 -0.0142167 0)
(0 -0.0130172 0)
(0 -0.0118113 0)
(-1.48929e-16 -0.0105988 0)
(-7.41386e-17 -0.00938064 0)
(0 -0.00815668 0)
(0 -0.00692536 0)
(0 -0.00568768 0)
(0 -0.00444339 0)
(0 -0.00319165 0)
(0 -0.00193324 0)
(-7.17217e-17 -0.000651169 0)
)
;

boundaryField
{
    INLET
    {
        type            cyclic;
    }
    OUTLET
    {
        type            cyclic;
    }
    CENTER
    {
        type            symmetryPlane;
    }
    WALL
    {
        type            extrapolatedCalculated;
        value           uniform (0 1.44816 0);
    }
    frontAndBackPlanes
    {
        type            empty;
    }
}


// ************************************************************************* //
