/*--------------------------------*- C++ -*----------------------------------*\
| =========                 |                                                 |
| \\      /  F ield         | OpenFOAM: The Open Source CFD Toolbox           |
|  \\    /   O peration     | Version:  v1806                                 |
|   \\  /    A nd           | Web:      www.OpenFOAM.com                      |
|    \\/     M anipulation  |                                                 |
\*---------------------------------------------------------------------------*/
FoamFile
{
    version     2.0;
    format      ascii;
    class       volTensorField;
    location    "10000";
    object      grad(U);
}
// * * * * * * * * * * * * * * * * * * * * * * * * * * * * * * * * * * * * * //

dimensions      [0 0 -1 0 0 0 0];


internalField   nonuniform List<tensor> 
1025
(
(2.14693e-18 0 0 74.4901 -8.68333e-12 0 0 0 0)
(0 0 0 74.3948 -3.21792e-12 0 0 0 0)
(0 0 0 74.249 5.92561e-13 0 0 0 0)
(-3.38705e-17 1.44399e-30 0 73.9911 3.54948e-13 0 0 0 0)
(0 0 0 73.5056 4.9647e-14 0 0 0 0)
(0 0 0 72.5735 -2.39035e-14 0 0 0 0)
(-6.67923e-17 9.49175e-31 0 70.8332 -1.2657e-14 0 0 0 0)
(3.32401e-17 -4.72371e-31 0 67.8466 -2.36534e-15 0 0 0 0)
(0 -4.70151e-31 0 63.3543 4.34041e-16 0 0 0 0)
(0 0 0 57.5577 1.53213e-15 0 0 0 0)
(0 0 0 51.0843 2.15609e-15 0 0 0 0)
(0 0 0 44.6402 2.15455e-15 0 0 0 0)
(0 0 0 38.7213 1.76139e-15 0 0 0 0)
(-1.29266e-16 9.1849e-31 0 33.5609 1.2898e-15 0 0 0 0)
(-6.43298e-17 9.14181e-31 0 29.2049 8.01206e-16 0 0 0 0)
(0 0 0 25.5952 3.62351e-16 0 0 0 0)
(-6.37289e-17 0 0 22.6295 5.19551e-17 0 0 0 0)
(0 0 0 20.1967 -9.37594e-17 0 0 0 0)
(0 0 0 18.1945 -1.88881e-16 0 0 0 0)
(-6.28363e-17 8.92957e-31 0 16.5362 -2.33568e-16 0 0 0 0)
(0 0 0 15.1519 -2.4997e-16 0 0 0 0)
(0 -8.8462e-31 0 13.9864 -2.51319e-16 0 0 0 0)
(6.19582e-17 0 0 12.9966 -2.42731e-16 0 0 0 0)
(0 0 0 12.1488 -2.49381e-16 0 0 0 0)
(1.22756e-16 -1.74446e-30 0 11.417 -2.6047e-16 0 0 0 0)
(6.10888e-17 0 0 10.7804 -1.6434e-16 0 0 0 0)
(0 0 0 10.2231 -1.68057e-16 0 0 0 0)
(0 0 0 9.73206 -1.16992e-16 0 0 0 0)
(0 0 0 9.29693 -6.14232e-17 0 0 0 0)
(0 8.52e-31 0 8.90936 -1.57819e-16 0 0 0 0)
(0 0 0 8.56249 1.47146e-18 0 0 0 0)
(5.94026e-17 0 0 8.25076 -1.06338e-16 0 0 0 0)
(0 0 0 7.9695 -1.47423e-16 0 0 0 0)
(-5.88348e-17 0 0 7.71478 3.34911e-17 0 0 0 0)
(0 0 0 7.4834 -7.90951e-18 0 0 0 0)
(0 0 0 7.27261 1.2993e-17 0 0 0 0)
(0 0 0 7.08008 -3.57617e-17 0 0 0 0)
(0 0 0 6.90376 -1.22254e-16 0 0 0 0)
(-5.7468e-17 0 0 6.74191 1.38626e-17 0 0 0 0)
(0 0 0 6.59307 3.65794e-17 0 0 0 0)
(0 0 0 6.45595 -6.5824e-17 0 0 0 0)
(-5.66683e-17 0 0 6.32941 -5.80292e-17 0 0 0 0)
(-5.64027e-17 0 0 6.21244 -4.27183e-17 0 0 0 0)
(0 0 0 6.10418 1.86584e-17 0 0 0 0)
(0 7.94085e-31 0 6.00387 -3.44352e-17 0 0 0 0)
(0 7.90248e-31 0 5.9108 -2.86477e-17 0 0 0 0)
(-1.10706e-16 7.86613e-31 0 5.82436 6.52509e-17 0 0 0 0)
(0 0 0 5.74404 -8.77649e-18 0 0 0 0)
(0 0 0 5.66934 -5.31324e-17 0 0 0 0)
(0 0 0 5.59979 -3.84823e-17 0 0 0 0)
(0 0 0 5.53502 8.18775e-17 0 0 0 0)
(1.0815e-16 -7.68454e-31 0 5.47467 -1.3313e-17 0 0 0 0)
(0 0 0 5.41843 3.42743e-17 0 0 0 0)
(-1.07143e-16 7.613e-31 0 5.36599 1.06578e-16 0 0 0 0)
(0 0 0 5.3171 -7.85796e-17 0 0 0 0)
(0 0 0 5.27148 2.1733e-17 0 0 0 0)
(0 0 0 5.22893 1.33698e-16 0 0 0 0)
(0 0 0 5.18926 6.88499e-17 0 0 0 0)
(0 0 0 5.15228 -3.78057e-17 0 0 0 0)
(0 0 0 5.1178 -4.50069e-17 0 0 0 0)
(0 0 0 5.08567 -3.12438e-17 0 0 0 0)
(0 0 0 5.05575 -2.18429e-17 0 0 0 0)
(0 0 0 5.02789 1.06179e-17 0 0 0 0)
(0 0 0 5.00199 -4.10448e-17 0 0 0 0)
(-1.01729e-16 7.22825e-31 0 4.97792 -1.04221e-17 0 0 0 0)
(0 0 0 4.95556 -1.5913e-17 0 0 0 0)
(0 0 0 4.93483 1.03196e-17 0 0 0 0)
(0 0 0 4.91563 -1.62506e-17 0 0 0 0)
(-9.98295e-17 7.09331e-31 0 4.89787 5.61108e-17 0 0 0 0)
(-9.93797e-17 7.06135e-31 0 4.88147 9.02013e-17 0 0 0 0)
(-9.8897e-17 7.02705e-31 0 4.86635 8.31016e-17 0 0 0 0)
(0 6.99569e-31 0 4.85246 9.51956e-17 0 0 0 0)
(0 0 0 4.83972 -9.9566e-17 0 0 0 0)
(0 0 0 4.82805 1.16205e-16 0 0 0 0)
(-9.70834e-17 0 0 4.81743 7.91622e-17 0 0 0 0)
(-9.6605e-17 0 0 4.80778 8.38389e-18 0 0 0 0)
(0 0 0 4.79905 8.90037e-18 0 0 0 0)
(0 0 0 4.79119 7.40623e-18 0 0 0 0)
(0 0 0 4.78416 4.78683e-18 0 0 0 0)
(0 0 0 4.77792 2.30246e-17 0 0 0 0)
(0 0 0 4.77243 9.26189e-19 0 0 0 0)
(-9.39144e-17 6.67302e-31 0 4.76764 6.81263e-17 0 0 0 0)
(0 6.64356e-31 0 4.76353 6.4164e-17 0 0 0 0)
(0 0 0 4.76005 -5.90932e-17 0 0 0 0)
(0 0 0 4.75717 3.06836e-17 0 0 0 0)
(0 0 0 4.75487 -4.08255e-17 0 0 0 0)
(0 0 0 4.75312 1.64735e-17 0 0 0 0)
(0 0 0 4.75188 -1.95396e-17 0 0 0 0)
(0 0 0 4.75113 -2.79966e-17 0 0 0 0)
(0 0 0 4.75084 4.6522e-17 0 0 0 0)
(0 0 0 4.751 1.12619e-17 0 0 0 0)
(0 0 0 4.75159 -1.16354e-17 0 0 0 0)
(0 0 0 4.75256 4.74428e-20 0 0 0 0)
(0 0 0 4.75391 9.01023e-18 0 0 0 0)
(0 0 0 4.75562 -3.92587e-17 0 0 0 0)
(0 6.24847e-31 0 4.75766 7.98368e-17 0 0 0 0)
(0 0 0 4.76002 1.2595e-16 0 0 0 0)
(-1.74258e-16 0 0 4.7627 -2.26101e-17 0 0 0 0)
(0 0 0 4.76565 3.17233e-18 0 0 0 0)
(-8.63192e-17 6.13335e-31 0 4.76888 -6.81923e-18 0 0 0 0)
(8.59129e-17 0 0 4.77238 -3.8351e-18 0 0 0 0)
(0 0 0 4.77611 -3.24024e-17 0 0 0 0)
(0 0 0 4.78007 5.14895e-17 0 0 0 0)
(0 0 0 4.78425 -7.68464e-18 0 0 0 0)
(0 0 0 4.78863 8.02658e-18 0 0 0 0)
(0 0 0 4.7932 1.04067e-16 0 0 0 0)
(0 5.93497e-31 0 4.79796 -9.25893e-17 0 0 0 0)
(8.31207e-17 -5.90608e-31 0 4.80288 -9.94876e-18 0 0 0 0)
(0 0 0 4.80796 5.77794e-17 0 0 0 0)
(0 0 0 4.8132 -5.63059e-17 0 0 0 0)
(-8.19625e-17 0 0 4.81857 7.29461e-17 0 0 0 0)
(0 0 0 4.82408 2.93499e-17 0 0 0 0)
(-1.62391e-16 0 0 4.82971 -8.44632e-17 0 0 0 0)
(8.08238e-17 0 0 4.83545 -3.22307e-17 0 0 0 0)
(0 -5.71582e-31 0 4.84129 -5.77315e-17 0 0 0 0)
(0 0 0 4.84723 -2.92204e-17 0 0 0 0)
(0 -5.66247e-31 0 4.85326 -1.29415e-17 0 0 0 0)
(-1.58644e-16 5.63617e-31 0 4.85937 -2.80397e-18 0 0 0 0)
(-1.57887e-16 0 0 4.86556 5.89761e-17 0 0 0 0)
(-1.57161e-16 5.58347e-31 0 4.87182 2.49205e-17 0 0 0 0)
(0 0 0 4.87814 -2.04877e-17 0 0 0 0)
(0 0 0 4.88451 2.01717e-17 0 0 0 0)
(0 5.50502e-31 0 4.89093 5.89923e-19 0 0 0 0)
(0 0 0 4.89739 -5.05165e-17 0 0 0 0)
(0 0 0 4.90389 1.76426e-17 0 0 0 0)
(0 0 0 4.91042 2.02521e-16 0 0 0 0)
(-1.52081e-16 0 0 4.91698 1.90163e-16 0 0 0 0)
(0 5.37753e-31 0 4.92357 -3.85348e-17 0 0 0 0)
(0 -5.35152e-31 0 4.93017 -3.88711e-17 0 0 0 0)
(0 0 0 4.93678 8.77927e-17 0 0 0 0)
(0 0 0 4.94341 3.30239e-17 0 0 0 0)
(0 0 0 4.95004 1.08148e-17 0 0 0 0)
(0 0 0 4.95666 4.56698e-17 0 0 0 0)
(-1.47157e-16 0 0 4.96328 2.16992e-17 0 0 0 0)
(0 0 0 4.96989 -2.48848e-17 0 0 0 0)
(0 5.1791e-31 0 4.9765 -1.0562e-17 0 0 0 0)
(0 0 0 4.98308 -1.42165e-17 0 0 0 0)
(-1.44407e-16 0 0 4.98965 6.44438e-18 0 0 0 0)
(0 0 0 4.99619 -1.53963e-17 0 0 0 0)
(0 -5.08253e-31 0 5.00271 -1.72787e-17 0 0 0 0)
(0 0 0 5.0092 -2.07055e-17 0 0 0 0)
(0 0 0 5.01566 -2.4079e-18 0 0 0 0)
(1.41059e-16 0 0 5.02208 8.23954e-17 0 0 0 0)
(-1.40405e-16 4.98817e-31 0 5.02846 2.69411e-17 0 0 0 0)
(-2.79475e-16 4.96447e-31 0 5.03481 5.49232e-17 0 0 0 0)
(0 0 0 5.04111 1.2541e-16 0 0 0 0)
(0 4.91839e-31 0 5.04737 1.09702e-16 0 0 0 0)
(-1.37792e-16 0 0 5.05358 3.67783e-17 0 0 0 0)
(0 0 0 5.05973 6.44649e-17 0 0 0 0)
(0 4.8499e-31 0 5.06584 7.73717e-17 0 0 0 0)
(0 0 0 5.07189 1.92092e-17 0 0 0 0)
(0 0 0 5.07789 7.43284e-17 0 0 0 0)
(0 0 0 5.08382 1.05444e-16 0 0 0 0)
(0 0 0 5.0897 8.44347e-17 0 0 0 0)
(0 0 0 5.09551 5.3661e-17 0 0 0 0)
(0 0 0 5.10126 -7.9502e-18 0 0 0 0)
(1.32085e-16 0 0 5.10694 -2.64084e-17 0 0 0 0)
(0 0 0 5.11256 -9.78399e-17 0 0 0 0)
(1.30844e-16 -9.29704e-31 0 5.1181 -8.11565e-17 0 0 0 0)
(0 0 0 5.12358 6.61947e-18 0 0 0 0)
(0 0 0 5.12898 -1.74128e-17 0 0 0 0)
(0 0 0 5.1343 2.22172e-17 0 0 0 0)
(0 0 0 5.13955 3.90948e-17 0 0 0 0)
(0 0 0 5.14473 -3.1627e-17 0 0 0 0)
(0 0 0 5.14983 -3.3294e-17 0 0 0 0)
(0 0 0 5.15485 3.15838e-17 0 0 0 0)
(-1.26032e-16 0 0 5.15979 -4.71087e-18 0 0 0 0)
(0 0 0 5.16465 -6.6271e-17 0 0 0 0)
(0 0 0 5.16942 1.45985e-16 0 0 0 0)
(-1.2433e-16 0 0 5.17413 1.12906e-16 0 0 0 0)
(0 0 0 5.17875 -3.82007e-16 0 0 0 0)
(0 0 0 5.18324 7.31327e-17 0 0 0 0)
(0 0 0 5.18765 3.20034e-16 0 0 0 0)
(0 8.66724e-31 0 5.19201 -2.16658e-17 0 0 0 0)
(-2.42842e-16 0 0 5.19629 -2.80568e-16 0 0 0 0)
(-1.20729e-16 0 0 5.20045 9.81271e-17 0 0 0 0)
(0 8.54905e-31 0 5.20453 8.65645e-17 0 0 0 0)
(2.39275e-16 -8.50075e-31 0 5.20853 -2.59128e-16 0 0 0 0)
(0 0 0 5.21242 1.30475e-16 0 0 0 0)
(0 0 0 5.21622 1.33026e-16 0 0 0 0)
(0 0 0 5.21995 1.97371e-16 0 0 0 0)
(0 0 0 5.2236 -1.00514e-16 0 0 0 0)
(0 0 0 5.22714 -1.35485e-16 0 0 0 0)
(0 0 0 5.23057 1.97555e-16 0 0 0 0)
(0 -8.23103e-31 0 5.23392 -1.12052e-16 0 0 0 0)
(0 0 0 5.23717 -1.45687e-16 0 0 0 0)
(0 0 0 5.2403 1.15458e-16 0 0 0 0)
(-1.14217e-16 0 0 5.24337 1.51835e-16 0 0 0 0)
(0 0 0 5.24637 -3.79697e-17 0 0 0 0)
(0 0 0 5.24926 -3.29556e-16 0 0 0 0)
(0 0 0 5.25201 3.202e-16 0 0 0 0)
(0 0 0 5.25469 1.04394e-16 0 0 0 0)
(-2.22903e-16 0 0 5.25728 1.86032e-16 0 0 0 0)
(-2.22202e-16 0 0 5.25976 1.27578e-16 0 0 0 0)
(0 7.8448e-31 0 5.26215 1.61599e-17 0 0 0 0)
(0 0 0 5.26444 3.89928e-18 0 0 0 0)
(0 0 0 5.26663 4.54915e-17 0 0 0 0)
(0 7.74785e-31 0 5.26873 6.49213e-17 0 0 0 0)
(0 0 0 5.27073 -3.35397e-16 0 0 0 0)
(0 -7.66887e-31 0 5.27262 1.82171e-16 0 0 0 0)
(0 0 0 5.27445 -4.90515e-17 0 0 0 0)
(0 0 0 5.27618 -1.81745e-16 0 0 0 0)
(-2.12822e-16 7.56097e-31 0 5.27779 -1.16438e-16 0 0 0 0)
(0 0 0 5.27929 2.18086e-16 0 0 0 0)
(-2.10915e-16 7.49319e-31 0 5.2807 2.51999e-16 0 0 0 0)
(0 0 0 5.28203 -6.01031e-17 0 0 0 0)
(0 0 0 5.28324 2.04603e-16 0 0 0 0)
(0 0 0 5.28437 -5.96773e-17 0 0 0 0)
(0 0 0 5.2854 -1.17626e-16 0 0 0 0)
(0 0 0 5.28631 6.42275e-17 0 0 0 0)
(-2.04993e-16 7.28283e-31 0 5.28714 -2.24102e-16 0 0 0 0)
(-2.04006e-16 0 0 5.28788 9.24593e-17 0 0 0 0)
(2.03223e-16 -7.21993e-31 0 5.28854 -1.30217e-16 0 0 0 0)
(0 7.17859e-31 0 5.28909 -3.9234e-16 0 0 0 0)
(0 0 0 5.28952 1.43019e-16 0 0 0 0)
(0 0 0 5.28987 2.0813e-16 0 0 0 0)
(0 0 0 5.29015 -2.20938e-16 0 0 0 0)
(0 0 0 5.29032 8.32938e-17 0 0 0 0)
(0 0 0 5.29038 7.83564e-17 0 0 0 0)
(0 0 0 5.29035 -1.50529e-16 0 0 0 0)
(0 6.9466e-31 0 5.29021 3.58659e-16 0 0 0 0)
(-1.9481e-16 0 0 5.29 5.17003e-17 0 0 0 0)
(-1.9374e-16 6.88304e-31 0 5.2897 -1.61092e-16 0 0 0 0)
(0 0 0 5.2893 1.25375e-16 0 0 0 0)
(-1.91984e-16 0 0 5.2888 -1.82039e-16 0 0 0 0)
(0 -6.78374e-31 0 5.28819 1.23797e-17 0 0 0 0)
(0 0 0 5.28751 1.02053e-16 0 0 0 0)
(0 0 0 5.28674 2.39298e-17 0 0 0 0)
(-1.88397e-16 6.69321e-31 0 5.28587 5.33549e-17 0 0 0 0)
(0 0 0 5.28489 1.83673e-16 0 0 0 0)
(0 0 0 5.28384 1.68305e-16 0 0 0 0)
(0 0 0 5.28271 -2.21016e-16 0 0 0 0)
(0 0 0 5.28147 -4.93287e-18 0 0 0 0)
(0 0 0 5.28012 1.62499e-16 0 0 0 0)
(0 6.50793e-31 0 5.27871 2.35325e-16 0 0 0 0)
(-3.64786e-16 6.4799e-31 0 5.27723 1.42134e-16 0 0 0 0)
(0 0 0 5.27566 -7.61802e-17 0 0 0 0)
(0 0 0 5.27397 5.43568e-17 0 0 0 0)
(0 0 0 5.2722 -1.98583e-18 0 0 0 0)
(-1.7885e-16 6.35402e-31 0 5.27034 5.98893e-17 0 0 0 0)
(-1.78098e-16 0 0 5.26839 1.94758e-16 0 0 0 0)
(0 0 0 5.26637 1.8831e-16 0 0 0 0)
(0 0 0 5.26426 -1.21362e-16 0 0 0 0)
(0 0 0 5.26205 -7.77885e-17 0 0 0 0)
(1.74862e-16 -1.24247e-30 0 5.25977 -1.54954e-16 0 0 0 0)
(0 0 0 5.2574 -2.02368e-16 0 0 0 0)
(0 0 0 5.25495 1.17805e-16 0 0 0 0)
(0 0 0 5.25242 -1.01346e-16 0 0 0 0)
(0 0 0 5.24979 6.53219e-17 0 0 0 0)
(0 -6.06707e-31 0 5.2471 -4.95549e-17 0 0 0 0)
(0 0 0 5.24432 1.13763e-16 0 0 0 0)
(0 0 0 5.24145 2.85754e-16 0 0 0 0)
(0 0 0 5.23851 -4.84132e-17 0 0 0 0)
(0 -5.95187e-31 0 5.23549 -2.86729e-16 0 0 0 0)
(0 0 0 5.23237 -2.51618e-17 0 0 0 0)
(0 0 0 5.22917 3.05632e-16 0 0 0 0)
(0 0 0 5.22591 2.03158e-16 0 0 0 0)
(0 0 0 5.22257 1.84073e-16 0 0 0 0)
(0 5.81388e-31 0 5.21916 2.11748e-16 0 0 0 0)
(-4.88673e-16 1.15741e-30 0 5.21567 4.04244e-16 0 0 0 0)
(-4.86428e-16 1.15209e-30 0 5.21211 3.15574e-16 0 0 0 0)
(-3.22556e-16 0 0 5.20846 1.42317e-16 0 0 0 0)
(-1.60545e-16 5.70369e-31 0 5.20473 2.21521e-16 0 0 0 0)
(0 5.67786e-31 0 5.20092 2.31306e-16 0 0 0 0)
(-3.18194e-16 5.65226e-31 0 5.19705 1.46405e-16 0 0 0 0)
(0 0 0 5.19312 -9.33644e-17 0 0 0 0)
(0 0 0 5.18911 -1.08161e-16 0 0 0 0)
(0 0 0 5.18501 6.65169e-17 0 0 0 0)
(0 0 0 5.18086 -8.62216e-17 0 0 0 0)
(-3.10724e-16 0 0 5.17663 -7.7961e-17 0 0 0 0)
(0 0 0 5.17233 -3.48474e-17 0 0 0 0)
(0 0 0 5.16796 -2.74552e-17 0 0 0 0)
(0 0 0 5.16351 1.09612e-16 0 0 0 0)
(0 5.42015e-31 0 5.15902 4.71266e-17 0 0 0 0)
(0 5.39295e-31 0 5.15445 3.22108e-17 0 0 0 0)
(0 0 0 5.14981 1.66781e-16 0 0 0 0)
(0 0 0 5.1451 1.15644e-16 0 0 0 0)
(-2.99305e-16 5.31672e-31 0 5.14032 3.651e-18 0 0 0 0)
(0 0 0 5.13547 2.09197e-16 0 0 0 0)
(0 5.26832e-31 0 5.13056 2.71655e-16 0 0 0 0)
(-2.95133e-16 1.04852e-30 0 5.1256 1.83083e-16 0 0 0 0)
(-2.93701e-16 5.21717e-31 0 5.12056 1.14179e-16 0 0 0 0)
(0 0 0 5.11545 5.45158e-17 0 0 0 0)
(0 5.17056e-31 0 5.11028 3.83475e-18 0 0 0 0)
(0 0 0 5.10507 -2.64976e-17 0 0 0 0)
(-2.88303e-16 0 0 5.09979 1.23779e-16 0 0 0 0)
(-2.86935e-16 5.09699e-31 0 5.09445 2.50339e-16 0 0 0 0)
(0 0 0 5.08905 1.86399e-16 0 0 0 0)
(0 0 0 5.08358 9.47249e-17 0 0 0 0)
(0 5.02549e-31 0 5.07806 1.3143e-16 0 0 0 0)
(-2.81593e-16 0 0 5.07248 1.43812e-16 0 0 0 0)
(0 0 0 5.06684 4.15362e-17 0 0 0 0)
(0 -4.95597e-31 0 5.06115 -1.86981e-16 0 0 0 0)
(0 -4.92999e-31 0 5.05539 -4.39759e-17 0 0 0 0)
(0 0 0 5.04958 1.61918e-17 0 0 0 0)
(0 0 0 5.04372 -4.63047e-17 0 0 0 0)
(0 0 0 5.0378 1.32332e-16 0 0 0 0)
(-2.72533e-16 0 0 5.03183 3.76791e-17 0 0 0 0)
(0 0 0 5.02581 6.55993e-17 0 0 0 0)
(0 0 0 5.01972 1.63847e-16 0 0 0 0)
(-2.68729e-16 0 0 5.0136 2.1227e-17 0 0 0 0)
(0 0 0 5.00742 5.47191e-17 0 0 0 0)
(0 0 0 5.00118 5.19449e-17 0 0 0 0)
(0 0 0 4.9949 6.96832e-18 0 0 0 0)
(0 0 0 4.98857 -4.1493e-17 0 0 0 0)
(0 0 0 4.98219 -5.8885e-17 0 0 0 0)
(2.61269e-16 0 0 4.97576 3.16922e-17 0 0 0 0)
(0 9.23654e-31 0 4.96929 -3.97346e-17 0 0 0 0)
(0 9.1914e-31 0 4.96276 1.2337e-17 0 0 0 0)
(0 0 0 4.95619 4.72578e-17 0 0 0 0)
(0 0 0 4.94958 4.09916e-17 0 0 0 0)
(0 0 0 4.94292 8.39345e-17 0 0 0 0)
(0 0 0 4.93621 1.47006e-16 0 0 0 0)
(0 0 0 4.92946 -1.96393e-17 0 0 0 0)
(0 0 0 4.92266 -5.38667e-17 0 0 0 0)
(0 0 0 4.91582 3.64003e-17 0 0 0 0)
(0 0 0 4.90895 -9.76285e-17 0 0 0 0)
(0 0 0 4.90202 1.78985e-16 0 0 0 0)
(-2.46948e-16 8.77337e-31 0 4.89505 2.37747e-16 0 0 0 0)
(2.45659e-16 0 0 4.88804 1.55556e-16 0 0 0 0)
(0 0 0 4.88099 1.68218e-16 0 0 0 0)
(0 8.64731e-31 0 4.87391 7.39566e-17 0 0 0 0)
(0 0 0 4.86678 7.6047e-17 0 0 0 0)
(0 0 0 4.85962 1.15854e-17 0 0 0 0)
(0 0 0 4.85242 -5.07214e-17 0 0 0 0)
(2.3887e-16 0 0 4.84518 -3.61331e-17 0 0 0 0)
(0 0 0 4.8379 1.3287e-17 0 0 0 0)
(0 0 0 4.83059 -3.16182e-17 0 0 0 0)
(0 0 0 4.82324 -2.55801e-17 0 0 0 0)
(0 0 0 4.81585 1.79642e-16 0 0 0 0)
(0 0 0 4.80843 6.01961e-17 0 0 0 0)
(0 0 0 4.80098 -9.9301e-17 0 0 0 0)
(-2.31177e-16 8.21306e-31 0 4.79348 3.02119e-17 0 0 0 0)
(0 0 0 4.78597 1.07475e-17 0 0 0 0)
(0 0 0 4.77842 -4.36493e-17 0 0 0 0)
(-2.27942e-16 8.09813e-31 0 4.77084 -1.58573e-16 0 0 0 0)
(0 0 0 4.76322 -1.41739e-16 0 0 0 0)
(0 0 0 4.75557 -1.41179e-16 0 0 0 0)
(0 0 0 4.74789 -5.55345e-17 0 0 0 0)
(0 0 0 4.74017 3.65781e-17 0 0 0 0)
(0 0 0 4.73243 -4.30531e-17 0 0 0 0)
(0 0 0 4.72467 -6.45633e-17 0 0 0 0)
(0 0 0 4.71687 6.42035e-17 0 0 0 0)
(-4.39105e-16 0 0 4.70904 3.33023e-16 0 0 0 0)
(-4.37066e-16 0 0 4.70119 3.13183e-16 0 0 0 0)
(0 0 0 4.69332 1.31845e-16 0 0 0 0)
(0 0 0 4.68541 2.40972e-16 0 0 0 0)
(0 0 0 4.67748 2.66203e-16 0 0 0 0)
(-4.28877e-16 7.61839e-31 0 4.66952 2.76289e-16 0 0 0 0)
(0 0 0 4.66154 2.44142e-16 0 0 0 0)
(0 0 0 4.65353 -6.66122e-17 0 0 0 0)
(4.22882e-16 -7.5119e-31 0 4.64549 -2.0676e-16 0 0 0 0)
(0 0 0 4.63744 -1.06033e-16 0 0 0 0)
(0 0 0 4.62936 7.22561e-17 0 0 0 0)
(0 0 0 4.62126 5.77938e-18 0 0 0 0)
(0 0 0 4.61313 -6.16158e-17 0 0 0 0)
(0 0 0 4.60498 4.9791e-17 0 0 0 0)
(0 0 0 4.59681 -4.51505e-17 0 0 0 0)
(0 0 0 4.58862 -9.42048e-17 0 0 0 0)
(0 7.23729e-31 0 4.58041 -1.50955e-16 0 0 0 0)
(0 0 0 4.57218 -8.51569e-17 0 0 0 0)
(0 -7.16833e-31 0 4.56393 4.56168e-17 0 0 0 0)
(0 0 0 4.55566 -6.01951e-17 0 0 0 0)
(0 0 0 4.54738 -6.35023e-17 0 0 0 0)
(0 0 0 4.53907 -3.99666e-17 0 0 0 0)
(0 0 0 4.53075 -1.6723e-18 0 0 0 0)
(0 0 0 4.52241 1.36448e-16 0 0 0 0)
(-3.92327e-16 6.96912e-31 0 4.51405 1.71382e-16 0 0 0 0)
(-7.80676e-16 6.93379e-31 0 4.50567 1.92161e-16 0 0 0 0)
(0 0 0 4.49728 8.37332e-17 0 0 0 0)
(0 0 0 4.48887 -5.77935e-17 0 0 0 0)
(0 0 0 4.48045 1.90741e-16 0 0 0 0)
(-7.66199e-16 6.80521e-31 0 4.47201 4.79604e-16 0 0 0 0)
(0 0 0 4.46355 3.24024e-16 0 0 0 0)
(3.79665e-16 -6.74421e-31 0 4.45508 -1.02019e-16 0 0 0 0)
(0 0 0 4.4466 -1.77253e-16 0 0 0 0)
(3.76125e-16 0 0 4.43811 -1.27799e-16 0 0 0 0)
(-3.74296e-16 0 0 4.42961 -1.38957e-16 0 0 0 0)
(0 0 0 4.42108 5.7814e-17 0 0 0 0)
(0 0 0 4.41255 2.0183e-16 0 0 0 0)
(0 0 0 4.40401 1.97873e-16 0 0 0 0)
(0 0 0 4.39545 1.49082e-16 0 0 0 0)
(0 0 0 4.38688 8.69916e-17 0 0 0 0)
(0 0 0 4.3783 2.24204e-16 0 0 0 0)
(0 0 0 4.36971 2.76621e-16 0 0 0 0)
(0 0 0 4.36111 1.75721e-16 0 0 0 0)
(0 0 0 4.3525 1.23184e-16 0 0 0 0)
(0 0 0 4.34387 3.28139e-18 0 0 0 0)
(0 0 0 4.33524 -1.05351e-16 0 0 0 0)
(-3.53815e-16 0 0 4.32661 -1.85854e-16 0 0 0 0)
(3.52197e-16 0 0 4.31796 -2.02091e-16 0 0 0 0)
(-7.00896e-16 0 0 4.30931 4.71739e-18 0 0 0 0)
(0 0 0 4.30065 8.94004e-17 0 0 0 0)
(0 0 0 4.29198 1.88514e-16 0 0 0 0)
(0 0 0 4.2833 5.24001e-16 0 0 0 0)
(0 0 0 4.27461 5.4062e-16 0 0 0 0)
(0 6.08178e-31 0 4.26592 1.80165e-16 0 0 0 0)
(0 0 0 4.25723 3.89834e-17 0 0 0 0)
(0 0 0 4.24853 -2.54547e-17 0 0 0 0)
(-6.74927e-16 0 0 4.23982 -1.78069e-16 0 0 0 0)
(3.35991e-16 -5.9684e-31 0 4.2311 -2.7943e-16 0 0 0 0)
(0 0 0 4.22238 -3.1193e-16 0 0 0 0)
(0 0 0 4.21366 -1.22018e-16 0 0 0 0)
(6.62521e-16 -5.88437e-31 0 4.20493 -4.81806e-18 0 0 0 0)
(0 0 0 4.19619 3.45279e-17 0 0 0 0)
(0 0 0 4.18746 1.19797e-16 0 0 0 0)
(0 0 0 4.17872 1.79868e-16 0 0 0 0)
(0 0 0 4.16998 1.51239e-16 0 0 0 0)
(0 0 0 4.16124 1.14898e-16 0 0 0 0)
(0 0 0 4.15248 1.26103e-16 0 0 0 0)
(0 0 0 4.14373 1.63737e-16 0 0 0 0)
(0 5.66717e-31 0 4.13498 3.0724e-16 0 0 0 0)
(-3.17598e-16 5.64167e-31 0 4.12623 2.94381e-16 0 0 0 0)
(0 0 0 4.11747 6.0591e-17 0 0 0 0)
(0 0 0 4.10871 -9.83817e-18 0 0 0 0)
(0 0 0 4.09994 2.74298e-17 0 0 0 0)
(0 0 0 4.09118 2.03569e-17 0 0 0 0)
(0 0 0 4.08243 -2.96777e-18 0 0 0 0)
(0 5.48336e-31 0 4.07366 1.14903e-16 0 0 0 0)
(0 0 0 4.0649 5.5146e-17 0 0 0 0)
(0 0 0 4.05614 -1.34499e-16 0 0 0 0)
(0 5.40846e-31 0 4.04737 -3.16804e-17 0 0 0 0)
(0 0 0 4.03861 1.69981e-16 0 0 0 0)
(-6.03085e-16 5.35647e-31 0 4.02985 2.04665e-16 0 0 0 0)
(6.0052e-16 -5.33369e-31 0 4.02109 -9.23281e-17 0 0 0 0)
(0 0 0 4.01233 2.48315e-17 0 0 0 0)
(-5.94827e-16 0 0 4.00357 3.83943e-16 0 0 0 0)
(0 0 0 3.99482 1.78923e-16 0 0 0 0)
(0 0 0 3.98606 -7.82684e-17 0 0 0 0)
(0 5.20814e-31 0 3.97731 -1.47928e-16 0 0 0 0)
(0 5.18481e-31 0 3.96856 -9.10317e-17 0 0 0 0)
(0 0 0 3.95982 4.14778e-17 0 0 0 0)
(-5.78179e-16 0 0 3.95107 6.96941e-17 0 0 0 0)
(0 0 0 3.94233 1.15091e-16 0 0 0 0)
(0 0 0 3.93359 2.00167e-16 0 0 0 0)
(-5.70201e-16 5.0644e-31 0 3.92485 1.73291e-16 0 0 0 0)
(0 0 0 3.91612 8.05584e-17 0 0 0 0)
(-5.64877e-16 5.01711e-31 0 3.90739 -6.33472e-17 0 0 0 0)
(0 0 0 3.89867 -6.92557e-17 0 0 0 0)
(0 0 0 3.88994 6.81293e-17 0 0 0 0)
(0 0 0 3.88123 2.58147e-17 0 0 0 0)
(0 0 0 3.87251 -8.477e-17 0 0 0 0)
(0 0 0 3.8638 -2.02692e-16 0 0 0 0)
(-5.48952e-16 0 0 3.8551 -1.12635e-16 0 0 0 0)
(0 0 0 3.8464 5.61478e-17 0 0 0 0)
(0 0 0 3.83771 -8.18187e-17 0 0 0 0)
(0 0 0 3.82902 -1.48241e-16 0 0 0 0)
(0 0 0 3.82033 -8.27913e-17 0 0 0 0)
(0 0 0 3.81166 -1.51039e-16 0 0 0 0)
(0 0 0 3.80299 -1.57315e-16 0 0 0 0)
(0 0 0 3.79432 -7.33945e-17 0 0 0 0)
(0 0 0 3.78566 9.48924e-17 0 0 0 0)
(0 0 0 3.777 2.47712e-16 0 0 0 0)
(0 0 0 3.76836 2.31621e-16 0 0 0 0)
(-5.21411e-16 1.85243e-30 0 3.75971 1.26785e-16 0 0 0 0)
(0 0 0 3.75108 3.92753e-17 0 0 0 0)
(5.16641e-16 -9.17739e-31 0 3.74245 -5.2629e-17 0 0 0 0)
(0 0 0 3.73383 -1.4275e-16 0 0 0 0)
(-5.11648e-16 9.08869e-31 0 3.72521 -7.9146e-17 0 0 0 0)
(-5.0934e-16 0 0 3.7166 -2.36553e-18 0 0 0 0)
(0 0 0 3.708 8.86463e-17 0 0 0 0)
(0 0 0 3.69941 4.43597e-16 0 0 0 0)
(-1.00449e-15 8.92163e-31 0 3.69083 7.84608e-16 0 0 0 0)
(0 0 0 3.68224 5.80203e-16 0 0 0 0)
(0 0 0 3.67367 7.95547e-17 0 0 0 0)
(0 0 0 3.66511 -1.59282e-16 0 0 0 0)
(0 0 0 3.65656 -8.56465e-17 0 0 0 0)
(0 0 0 3.64801 2.05927e-17 0 0 0 0)
(-4.88203e-16 8.67223e-31 0 3.63947 1.47441e-16 0 0 0 0)
(4.85963e-16 0 0 3.63094 2.23011e-16 0 0 0 0)
(-4.83742e-16 8.59299e-31 0 3.62242 1.82598e-16 0 0 0 0)
(0 0 0 3.61391 2.14837e-16 0 0 0 0)
(-4.79091e-16 0 0 3.6054 1.6999e-16 0 0 0 0)
(0 0 0 3.5969 2.25115e-16 0 0 0 0)
(-9.49322e-16 0 0 3.58841 5.10523e-16 0 0 0 0)
(4.72543e-16 0 0 3.57994 5.42165e-16 0 0 0 0)
(-4.70182e-16 8.35211e-31 0 3.57147 3.32564e-16 0 0 0 0)
(0 0 0 3.56301 1.39396e-16 0 0 0 0)
(0 0 0 3.55455 1.57758e-16 0 0 0 0)
(-4.63746e-16 0 0 3.54611 -1.29873e-16 0 0 0 0)
(9.22945e-16 -8.1974e-31 0 3.53768 -6.29643e-16 0 0 0 0)
(0 0 0 3.52926 -5.0168e-16 0 0 0 0)
(0 0 0 3.52085 -3.28099e-16 0 0 0 0)
(4.55027e-16 0 0 3.51244 -3.10501e-16 0 0 0 0)
(0 0 0 3.50405 -1.40905e-16 0 0 0 0)
(0 0 0 3.49566 1.51293e-17 0 0 0 0)
(0 0 0 3.48729 7.47991e-17 0 0 0 0)
(-4.46512e-16 0 0 3.47892 -1.62408e-17 0 0 0 0)
(0 0 0 3.47057 -5.40464e-17 0 0 0 0)
(0 0 0 3.46222 8.83644e-17 0 0 0 0)
(-4.4036e-16 7.82237e-31 0 3.45388 1.30583e-16 0 0 0 0)
(0 0 0 3.44556 3.39568e-16 0 0 0 0)
(0 7.74785e-31 0 3.43725 6.67312e-16 0 0 0 0)
(0 0 0 3.42894 4.04058e-16 0 0 0 0)
(0 0 0 3.42065 -7.41519e-17 0 0 0 0)
(0 0 0 3.41237 -1.54888e-16 0 0 0 0)
(0 0 0 3.40409 7.82759e-17 0 0 0 0)
(-4.26073e-16 0 0 3.39583 3.14706e-16 0 0 0 0)
(0 0 0 3.38758 1.4569e-16 0 0 0 0)
(0 0 0 3.37934 -4.12585e-17 0 0 0 0)
(1.68062e-15 -7.46346e-31 0 3.37111 -1.17517e-17 0 0 0 0)
(0 0 0 3.36289 -9.88131e-17 0 0 0 0)
(-8.3226e-16 0 0 3.35468 -5.72525e-17 0 0 0 0)
(0 0 0 3.34648 4.36038e-17 0 0 0 0)
(0 0 0 3.3383 1.08307e-16 0 0 0 0)
(0 0 0 3.33013 1.41818e-16 0 0 0 0)
(0 0 0 3.32198 -6.75579e-17 0 0 0 0)
(0 0 0 3.31385 -5.8727e-17 0 0 0 0)
(0 0 0 3.30575 5.44789e-17 0 0 0 0)
(0 0 0 3.29768 -3.89092e-16 0 0 0 0)
(8.01735e-16 0 0 3.28964 -8.11822e-16 0 0 0 0)
(7.97958e-16 0 0 3.28171 -7.20775e-16 0 0 0 0)
(0 0 0 3.27379 -4.63018e-16 0 0 0 0)
(-7.90511e-16 0 0 3.26586 -4.79871e-17 0 0 0 0)
(0 0 0 3.25793 2.58731e-16 0 0 0 0)
(-7.83021e-16 0 0 3.24989 1.01534e-16 0 0 0 0)
(0 6.92263e-31 0 3.24185 4.09916e-17 0 0 0 0)
(-7.75849e-16 6.89092e-31 0 3.23382 7.32245e-17 0 0 0 0)
(-7.72136e-16 0 0 3.22579 8.99006e-17 0 0 0 0)
(7.68458e-16 0 0 3.21777 2.60124e-16 0 0 0 0)
(0 0 0 3.20976 2.17031e-16 0 0 0 0)
(-7.61378e-16 6.76239e-31 0 3.20176 2.1023e-16 0 0 0 0)
(-7.57632e-16 0 0 3.19377 3.14023e-16 0 0 0 0)
(0 0 0 3.1858 2.6967e-16 0 0 0 0)
(-1.5015e-15 6.66799e-31 0 3.17783 2.47421e-16 0 0 0 0)
(0 0 0 3.16988 1.83522e-16 0 0 0 0)
(-7.43664e-16 0 0 3.16194 2.70103e-16 0 0 0 0)
(0 0 0 3.15401 4.75492e-16 0 0 0 0)
(0 0 0 3.14609 2.6681e-16 0 0 0 0)
(7.33203e-16 0 0 3.13818 7.26191e-18 0 0 0 0)
(0 0 0 3.13029 -2.19519e-18 0 0 0 0)
(0 0 0 3.12241 -2.21754e-17 0 0 0 0)
(0 0 0 3.11454 -2.95339e-17 0 0 0 0)
(0 0 0 3.10668 -1.45508e-16 0 0 0 0)
(-7.16156e-16 0 0 3.09883 -2.39943e-16 0 0 0 0)
(7.12991e-16 0 0 3.091 -1.77211e-16 0 0 0 0)
(0 0 0 3.08317 -1.51637e-16 0 0 0 0)
(0 0 0 3.07536 9.26741e-17 0 0 0 0)
(-7.02932e-16 1.24866e-30 0 3.06756 6.21075e-16 0 0 0 0)
(0 0 0 3.05977 6.4778e-16 0 0 0 0)
(0 0 0 3.052 1.18179e-18 0 0 0 0)
(0 -6.15518e-31 0 3.04424 -3.71679e-16 0 0 0 0)
(0 0 0 3.03648 -3.86349e-16 0 0 0 0)
(0 0 0 3.02875 -4.30123e-16 0 0 0 0)
(6.83367e-16 0 0 3.02102 -1.78243e-16 0 0 0 0)
(-6.80211e-16 0 0 3.0133 2.26711e-16 0 0 0 0)
(0 0 0 3.0056 1.52119e-16 0 0 0 0)
(0 0 0 2.99791 -1.66648e-17 0 0 0 0)
(0 0 0 2.99023 -7.48025e-17 0 0 0 0)
(0 0 0 2.98256 -3.53904e-16 0 0 0 0)
(6.6434e-16 -5.90052e-31 0 2.97491 -4.17157e-16 0 0 0 0)
(0 0 0 2.96727 -2.78653e-16 0 0 0 0)
(-6.5789e-16 5.84323e-31 0 2.95964 9.34013e-17 0 0 0 0)
(0 5.82063e-31 0 2.95202 4.23414e-16 0 0 0 0)
(0 0 0 2.94441 3.51148e-16 0 0 0 0)
(0 0 0 2.93681 1.76899e-16 0 0 0 0)
(0 0 0 2.92924 3.25772e-17 0 0 0 0)
(0 5.71018e-31 0 2.92167 1.01106e-16 0 0 0 0)
(0 0 0 2.91411 7.55152e-17 0 0 0 0)
(0 0 0 2.90655 -2.66325e-16 0 0 0 0)
(6.34482e-16 0 0 2.89902 -5.152e-16 0 0 0 0)
(0 5.60385e-31 0 2.89151 -3.18664e-16 0 0 0 0)
(0 0 0 2.88399 1.98622e-16 0 0 0 0)
(0 5.55215e-31 0 2.87648 6.34842e-16 0 0 0 0)
(-1.24335e-15 1.10432e-30 0 2.86899 1.0048e-15 0 0 0 0)
(-1.23881e-15 1.10028e-30 0 2.86151 9.80379e-16 0 0 0 0)
(0 0 0 2.85406 1.81334e-16 0 0 0 0)
(6.12682e-16 -5.44171e-31 0 2.84661 -2.53934e-16 0 0 0 0)
(0 0 0 2.83916 -6.53437e-17 0 0 0 0)
(0 0 0 2.83174 -3.27603e-17 0 0 0 0)
(0 0 0 2.82434 -3.72377e-18 0 0 0 0)
(0 0 0 2.81693 2.37023e-16 0 0 0 0)
(-1.19722e-15 5.31672e-31 0 2.80953 4.77435e-16 0 0 0 0)
(0 0 0 2.80215 2.57181e-16 0 0 0 0)
(0 0 0 2.79478 6.44469e-17 0 0 0 0)
(0 0 0 2.78742 2.96971e-16 0 0 0 0)
(-1.17643e-15 1.04488e-30 0 2.78009 6.34164e-16 0 0 0 0)
(0 5.19735e-31 0 2.77276 7.4642e-16 0 0 0 0)
(-5.82153e-16 0 0 2.76543 6.26107e-16 0 0 0 0)
(0 0 0 2.75812 3.74006e-16 0 0 0 0)
(0 0 0 2.75083 6.8571e-17 0 0 0 0)
(-5.7426e-16 5.10045e-31 0 2.74355 -8.59574e-18 0 0 0 0)
(0 0 0 2.73627 6.46632e-17 0 0 0 0)
(0 0 0 2.72901 1.27801e-16 0 0 0 0)
(-1.69973e-15 5.03222e-31 0 2.72177 3.48096e-16 0 0 0 0)
(0 0 0 2.71453 6.163e-16 0 0 0 0)
(0 0 0 2.70731 4.95316e-17 0 0 0 0)
(2.23271e-15 -4.9576e-31 0 2.70008 -7.06413e-16 0 0 0 0)
(0 0 0 2.69287 -5.11247e-16 0 0 0 0)
(-1.10723e-15 0 0 2.68568 1.14786e-16 0 0 0 0)
(-1.10183e-15 0 0 2.67851 4.1988e-16 0 0 0 0)
(0 0 0 2.67134 1.72761e-16 0 0 0 0)
(1.09119e-15 -9.69168e-31 0 2.66417 -1.93452e-16 0 0 0 0)
(0 0 0 2.65703 -1.43859e-16 0 0 0 0)
(0 0 0 2.6499 1.94054e-16 0 0 0 0)
(1.0756e-15 0 0 2.64278 4.46087e-16 0 0 0 0)
(-1.0705e-15 0 0 2.63566 6.70937e-16 0 0 0 0)
(-1.06545e-15 4.73155e-31 0 2.62856 1.07518e-15 0 0 0 0)
(-1.06211e-15 4.71672e-31 0 2.62148 1.29459e-15 0 0 0 0)
(0 4.68733e-31 0 2.61442 9.51014e-16 0 0 0 0)
(0 4.66553e-31 0 2.60735 1.25729e-16 0 0 0 0)
(1.04572e-15 0 0 2.6003 -3.70906e-16 0 0 0 0)
(0 -4.62253e-31 0 2.59325 -3.72995e-16 0 0 0 0)
(0 0 0 2.58622 -7.23784e-17 0 0 0 0)
(0 0 0 2.57921 1.66924e-16 0 0 0 0)
(1.02515e-15 0 0 2.57219 -5.31147e-17 0 0 0 0)
(0 0 0 2.56519 -3.42082e-16 0 0 0 0)
(0 0 0 2.5582 -3.31759e-16 0 0 0 0)
(0 0 0 2.55123 -2.48915e-16 0 0 0 0)
(-1.00687e-15 8.94284e-31 0 2.54427 -1.80026e-16 0 0 0 0)
(0 0 0 2.53732 -4.96171e-16 0 0 0 0)
(9.97977e-16 -8.86382e-31 0 2.53038 -9.36897e-16 0 0 0 0)
(-9.93587e-16 0 0 2.52345 -2.37193e-16 0 0 0 0)
(-9.87794e-16 8.77337e-31 0 2.51653 5.11719e-16 0 0 0 0)
(9.84922e-16 -8.74786e-31 0 2.50963 5.27858e-16 0 0 0 0)
(-2.93769e-15 8.6973e-31 0 2.50274 7.12278e-16 0 0 0 0)
(0 0 0 2.49585 7.90325e-16 0 0 0 0)
(0 0 0 2.48897 4.79707e-16 0 0 0 0)
(-1.93056e-15 8.57341e-31 0 2.48211 6.38356e-16 0 0 0 0)
(-9.61172e-16 0 0 2.47525 5.86223e-16 0 0 0 0)
(0 -8.48876e-31 0 2.46841 -1.54306e-17 0 0 0 0)
(0 0 0 2.46158 -1.02626e-16 0 0 0 0)
(0 -8.41753e-31 0 2.45477 7.24557e-17 0 0 0 0)
(0 0 0 2.44796 3.18283e-16 0 0 0 0)
(0 0 0 2.44115 5.37883e-16 0 0 0 0)
(-2.80397e-15 8.30142e-31 0 2.43437 5.02918e-16 0 0 0 0)
(0 0 0 2.42759 6.47585e-16 0 0 0 0)
(-9.25719e-16 0 0 2.42082 5.25464e-16 0 0 0 0)
(0 0 0 2.41407 -3.47409e-18 0 0 0 0)
(0 0 0 2.40733 -2.06548e-16 0 0 0 0)
(-9.12014e-16 0 0 2.4006 -3.06665e-16 0 0 0 0)
(1.81669e-15 0 0 2.39387 -5.79985e-16 0 0 0 0)
(9.04708e-16 0 0 2.38716 -7.46171e-16 0 0 0 0)
(0 0 0 2.38046 -6.1874e-16 0 0 0 0)
(0 0 0 2.37377 -3.18597e-16 0 0 0 0)
(8.91614e-16 -7.91912e-31 0 2.36709 -2.88027e-16 0 0 0 0)
(0 0 0 2.36041 -2.80896e-16 0 0 0 0)
(0 0 0 2.35375 1.35147e-16 0 0 0 0)
(-8.78893e-16 7.80614e-31 0 2.34711 4.23179e-16 0 0 0 0)
(0 0 0 2.34046 2.94575e-16 0 0 0 0)
(0 0 0 2.33383 5.03677e-17 0 0 0 0)
(0 0 0 2.32721 2.75635e-18 0 0 0 0)
(0 0 0 2.32061 5.21501e-17 0 0 0 0)
(0 0 0 2.31402 1.35955e-16 0 0 0 0)
(0 0 0 2.30743 5.56074e-16 0 0 0 0)
(0 0 0 2.30085 1.00823e-15 0 0 0 0)
(0 0 0 2.29429 7.10657e-16 0 0 0 0)
(0 7.47644e-31 0 2.28773 3.44884e-16 0 0 0 0)
(0 7.44868e-31 0 2.28117 7.47791e-16 0 0 0 0)
(-8.35544e-16 7.42112e-31 0 2.27464 8.63269e-16 0 0 0 0)
(0 0 0 2.26812 6.07602e-16 0 0 0 0)
(-8.27383e-16 0 0 2.2616 5.01325e-16 0 0 0 0)
(1.64472e-15 -7.30404e-31 0 2.2551 1.51978e-16 0 0 0 0)
(8.19379e-16 -7.27755e-31 0 2.2486 -3.25882e-16 0 0 0 0)
(0 0 0 2.24211 -3.86084e-16 0 0 0 0)
(0 0 0 2.23563 2.74749e-18 0 0 0 0)
(-8.0766e-16 7.17346e-31 0 2.22917 6.03012e-16 0 0 0 0)
(0 0 0 2.22271 8.96205e-16 0 0 0 0)
(0 0 0 2.21626 4.99233e-16 0 0 0 0)
(0 0 0 2.20983 3.66509e-16 0 0 0 0)
(-7.92545e-16 0 0 2.2034 5.85763e-16 0 0 0 0)
(-7.88855e-16 0 0 2.19698 4.69874e-16 0 0 0 0)
(0 0 0 2.19057 3.4456e-16 0 0 0 0)
(-1.56315e-15 0 0 2.18417 4.1366e-16 0 0 0 0)
(-7.77987e-16 6.90991e-31 0 2.17779 7.68677e-16 0 0 0 0)
(0 0 0 2.17141 9.43071e-16 0 0 0 0)
(0 0 0 2.16504 7.71373e-16 0 0 0 0)
(0 0 0 2.15868 7.09971e-16 0 0 0 0)
(0 0 0 2.15233 3.6257e-16 0 0 0 0)
(0 0 0 2.14599 1.03286e-16 0 0 0 0)
(-7.56279e-16 6.71711e-31 0 2.13966 4.07577e-16 0 0 0 0)
(-7.52918e-16 6.68726e-31 0 2.13333 6.53737e-16 0 0 0 0)
(0 0 0 2.12702 4.68135e-16 0 0 0 0)
(0 0 0 2.12072 5.04602e-16 0 0 0 0)
(-1.4844e-15 6.59204e-31 0 2.11442 1.09678e-15 0 0 0 0)
(0 6.56328e-31 0 2.10814 1.2044e-15 0 0 0 0)
(0 0 0 2.10186 6.32172e-16 0 0 0 0)
(-1.46356e-15 0 0 2.09559 2.26153e-16 0 0 0 0)
(0 0 0 2.08934 1.33696e-16 0 0 0 0)
(0 0 0 2.08309 6.11259e-16 0 0 0 0)
(0 0 0 2.07686 1.05412e-15 0 0 0 0)
(0 0 0 2.07062 5.61944e-16 0 0 0 0)
(0 0 0 2.0644 1.11721e-16 0 0 0 0)
(0 0 0 2.05819 5.81272e-19 0 0 0 0)
(0 0 0 2.05199 -1.79552e-17 0 0 0 0)
(1.41025e-15 0 0 2.04579 -7.65363e-17 0 0 0 0)
(0 0 0 2.03961 -8.85696e-17 0 0 0 0)
(0 0 0 2.03343 3.00197e-16 0 0 0 0)
(-1.39e-15 0 0 2.02727 4.86116e-16 0 0 0 0)
(0 0 0 2.02111 1.91744e-16 0 0 0 0)
(0 6.11639e-31 0 2.01496 -1.43382e-16 0 0 0 0)
(0 0 0 2.00881 -1.06746e-16 0 0 0 0)
(0 0 0 2.00268 2.20402e-17 0 0 0 0)
(0 0 0 1.99656 2.192e-16 0 0 0 0)
(0 6.00053e-31 0 1.99045 4.13563e-16 0 0 0 0)
(0 0 0 1.98434 2.14328e-16 0 0 0 0)
(0 0 0 1.97824 1.22252e-16 0 0 0 0)
(0 5.91793e-31 0 1.97215 2.56969e-16 0 0 0 0)
(0 0 0 1.96607 1.43943e-16 0 0 0 0)