/*--------------------------------*- C++ -*----------------------------------*\
| =========                 |                                                 |
| \\      /  F ield         | OpenFOAM: The Open Source CFD Toolbox           |
|  \\    /   O peration     | Version:  v1806                                 |
|   \\  /    A nd           | Web:      www.OpenFOAM.com                      |
|    \\/     M anipulation  |                                                 |
\*---------------------------------------------------------------------------*/
FoamFile
{
    version     2.0;
    format      ascii;
    class       volVectorField;
    location    "10000";
    object      grad(p);
}
// * * * * * * * * * * * * * * * * * * * * * * * * * * * * * * * * * * * * * //

dimensions      [0 1 -2 0 0 0 0];


internalField   nonuniform List<vector> 
1025
(
(0 3.7551e-12 0)
(0 4.54174e-12 0)
(-9.67174e-31 6.66036e-13 0)
(-9.62657e-31 -1.81912e-13 0)
(0 -2.03473e-14 0)
(0 9.99936e-14 0)
(-9.49175e-31 1.13494e-13 0)
(0 1.09423e-13 0)
(0 1.15926e-13 0)
(0 1.30484e-13 0)
(0 1.49268e-13 0)
(0 1.71403e-13 0)
(0 1.96897e-13 0)
(-1.83698e-30 2.25405e-13 0)
(-9.14181e-31 2.56555e-13 0)
(0 2.89998e-13 0)
(-9.05641e-31 3.25062e-13 0)
(0 3.61148e-13 0)
(0 3.97756e-13 0)
(0 4.34391e-13 0)
(0 4.70818e-13 0)
(0 5.06904e-13 0)
(8.80479e-31 5.42361e-13 0)
(0 5.76884e-13 0)
(2.61669e-30 6.10946e-13 0)
(1.73625e-30 6.44389e-13 0)
(0 6.76531e-13 0)
(-1.71997e-30 7.07652e-13 0)
(0 7.38257e-13 0)
(0 7.67878e-13 0)
(0 7.9644e-13 0)
(1.68832e-30 8.24729e-13 0)
(-1.68003e-30 8.51943e-13 0)
(-3.34437e-30 8.7779e-13 0)
(0 9.03208e-13 0)
(0 9.28237e-13 0)
(0 9.52447e-13 0)
(0 9.75831e-13 0)
(0 9.98362e-13 0)
(0 1.0201e-12 0)
(0 1.04159e-12 0)
(-1.61061e-30 1.0624e-12 0)
(-1.60306e-30 1.08221e-12 0)
(0 1.10202e-12 0)
(-3.17634e-30 1.12129e-12 0)
(0 1.13958e-12 0)
(-3.14645e-30 1.15702e-12 0)
(0 1.17411e-12 0)
(0 1.19118e-12 0)
(0 1.20741e-12 0)
(0 1.223e-12 0)
(3.07382e-30 1.23875e-12 0)
(0 1.2544e-12 0)
(-3.0452e-30 1.26801e-12 0)
(0 1.28103e-12 0)
(0 1.29488e-12 0)
(0 1.30825e-12 0)
(0 1.32075e-12 0)
(0 1.33302e-12 0)
(-2.96013e-30 1.34503e-12 0)
(-5.89243e-30 1.35628e-12 0)
(0 1.36765e-12 0)
(-2.91878e-30 1.37871e-12 0)
(0 1.38925e-12 0)
(0 1.39895e-12 0)
(0 1.40858e-12 0)
(0 1.41871e-12 0)
(0 1.42848e-12 0)
(-5.67465e-30 1.4372e-12 0)
(-5.64908e-30 1.44486e-12 0)
(-5.62164e-30 1.4524e-12 0)
(0 1.45978e-12 0)
(0 1.46766e-12 0)
(0 1.47625e-12 0)
(0 1.48342e-12 0)
(0 1.48912e-12 0)
(0 1.49544e-12 0)
(0 1.5019e-12 0)
(0 1.50794e-12 0)
(0 1.51391e-12 0)
(0 1.51972e-12 0)
(0 1.52475e-12 0)
(-5.31485e-30 1.52923e-12 0)
(0 1.53406e-12 0)
(0 1.53896e-12 0)
(0 1.54358e-12 0)
(0 1.54806e-12 0)
(-5.19107e-30 1.55179e-12 0)
(0 1.55528e-12 0)
(0 1.55923e-12 0)
(0 1.56291e-12 0)
(-1.01888e-29 1.56576e-12 0)
(0 1.5685e-12 0)
(0 1.57183e-12 0)
(0 1.57534e-12 0)
(-9.99756e-30 1.57787e-12 0)
(0 1.57963e-12 0)
(-9.90542e-30 1.58172e-12 0)
(0 1.5836e-12 0)
(-9.81336e-30 1.58471e-12 0)
(9.76717e-30 1.58726e-12 0)
(0 1.59001e-12 0)
(0 1.59103e-12 0)
(0 1.59234e-12 0)
(0 1.59413e-12 0)
(0 1.59489e-12 0)
(0 1.59438e-12 0)
(0 1.59525e-12 0)
(0 1.59722e-12 0)
(0 1.59842e-12 0)
(-9.31805e-30 1.59833e-12 0)
(0 1.59827e-12 0)
(0 1.59747e-12 0)
(1.83772e-29 1.59711e-12 0)
(0 1.59858e-12 0)
(0 1.5984e-12 0)
(9.05996e-30 1.59892e-12 0)
(0 1.59955e-12 0)
(0 1.59777e-12 0)
(-1.78671e-29 1.59581e-12 0)
(0 1.59586e-12 0)
(0 1.59578e-12 0)
(-1.76161e-29 1.59389e-12 0)
(0 1.59289e-12 0)
(0 1.59328e-12 0)
(-1.73695e-29 1.59248e-12 0)
(0 1.58937e-12 0)
(0 1.58623e-12 0)
(1.71249e-29 1.58649e-12 0)
(0 1.58639e-12 0)
(0 1.58417e-12 0)
(-1.6887e-29 1.58193e-12 0)
(0 1.58016e-12 0)
(-1.67298e-29 1.57846e-12 0)
(0 1.57668e-12 0)
(-1.65731e-29 1.57504e-12 0)
(0 1.57304e-12 0)
(-1.64172e-29 1.57046e-12 0)
(0 1.56738e-12 0)
(1.62641e-29 1.56676e-12 0)
(0 1.56556e-12 0)
(0 1.56246e-12 0)
(0 1.56181e-12 0)
(-3.19243e-29 1.55993e-12 0)
(-3.17726e-29 1.5543e-12 0)
(0 1.55185e-12 0)
(0 1.5503e-12 0)
(-1.56651e-29 1.54665e-12 0)
(0 1.54471e-12 0)
(-1.55197e-29 1.54211e-12 0)
(0 1.53888e-12 0)
(0 1.53721e-12 0)
(0 1.53359e-12 0)
(0 1.52951e-12 0)
(0 1.5269e-12 0)
(0 1.52375e-12 0)
(1.50163e-29 1.52078e-12 0)
(0 1.51701e-12 0)
(2.97505e-29 1.51655e-12 0)
(-1.48076e-29 1.51464e-12 0)
(0 1.50831e-12 0)
(0 1.50529e-12 0)
(0 1.5029e-12 0)
(0 1.4995e-12 0)
(0 1.49616e-12 0)
(0 1.49329e-12 0)
(0 1.48927e-12 0)
(0 1.48519e-12 0)
(0 1.48374e-12 0)
(0 1.48129e-12 0)
(0 1.47532e-12 0)
(0 1.47077e-12 0)
(0 1.46989e-12 0)
(0 1.46793e-12 0)
(0 1.46335e-12 0)
(-2.74505e-29 1.4587e-12 0)
(-2.7357e-29 1.45393e-12 0)
(2.72024e-29 1.45237e-12 0)
(0 1.45016e-12 0)
(2.69587e-29 1.44585e-12 0)
(-2.68385e-29 1.44136e-12 0)
(2.67193e-29 1.43712e-12 0)
(0 1.43415e-12 0)
(-2.64551e-29 1.42878e-12 0)
(2.63393e-29 1.42527e-12 0)
(0 1.42222e-12 0)
(5.21649e-29 1.41979e-12 0)
(0 1.41619e-12 0)
(0 1.41062e-12 0)
(0 1.40688e-12 0)
(0 1.40431e-12 0)
(-2.55023e-29 1.40058e-12 0)
(-5.06824e-29 1.39512e-12 0)
(0 1.39028e-12 0)
(-2.51034e-29 1.38462e-12 0)
(5.00502e-29 1.3812e-12 0)
(2.487e-29 1.38001e-12 0)
(0 1.3753e-12 0)
(0 1.3689e-12 0)
(0 1.36654e-12 0)
(0 1.36509e-12 0)
(0 1.36006e-12 0)
(0 1.35407e-12 0)
(0 1.35164e-12 0)
(0 1.34934e-12 0)
(0 1.34242e-12 0)
(0 1.33717e-12 0)
(2.36485e-29 1.33402e-12 0)
(0 1.33009e-12 0)
(2.34184e-29 1.32829e-12 0)
(0 1.32495e-12 0)
(0 1.31873e-12 0)
(2.31038e-29 1.31657e-12 0)
(0 1.31361e-12 0)
(0 1.30949e-12 0)
(0 1.30711e-12 0)
(0 1.3027e-12 0)
(0 1.29821e-12 0)
(0 1.29409e-12 0)
(0 1.29055e-12 0)
(0 1.28588e-12 0)
(0 1.28082e-12 0)
(0 1.27704e-12 0)
(0 1.27356e-12 0)
(-4.36521e-29 1.26855e-12 0)
(0 1.26445e-12 0)
(0 1.26237e-12 0)
(4.30279e-29 1.26069e-12 0)
(-4.28365e-29 1.2547e-12 0)
(0 1.24602e-12 0)
(0 1.24287e-12 0)
(0 1.24093e-12 0)
(0 1.23667e-12 0)
(0 1.23405e-12 0)
(0 1.23194e-12 0)
(-4.14714e-29 1.224e-12 0)
(0 1.21682e-12 0)
(0 1.21542e-12 0)
(0 1.21445e-12 0)
(0 1.21053e-12 0)
(-4.04947e-29 1.20362e-12 0)
(0 1.19937e-12 0)
(0 1.19331e-12 0)
(0 1.18466e-12 0)
(3.97591e-29 1.18728e-12 0)
(0 1.1889e-12 0)
(0 1.1815e-12 0)
(0 1.1753e-12 0)
(0 1.17028e-12 0)
(0 1.16969e-12 0)
(0 1.16481e-12 0)
(0 1.15586e-12 0)
(0 1.15097e-12 0)
(0 1.15019e-12 0)
(0 1.15017e-12 0)
(0 1.14363e-12 0)
(-3.75571e-29 1.13685e-12 0)
(0 1.13448e-12 0)
(0 1.13246e-12 0)
(-3.70371e-29 1.1265e-12 0)
(-7.37339e-29 1.1181e-12 0)
(-3.66704e-29 1.11372e-12 0)
(-3.65036e-29 1.11007e-12 0)
(0 1.10368e-12 0)
(0 1.10015e-12 0)
(0 1.09842e-12 0)
(0 1.09502e-12 0)
(0 1.09193e-12 0)
(0 1.08957e-12 0)
(-3.53252e-29 1.08422e-12 0)
(0 1.07887e-12 0)
(0 1.07705e-12 0)
(0 1.07625e-12 0)
(-3.46889e-29 1.07272e-12 0)
(0 1.0646e-12 0)
(0 1.05988e-12 0)
(0 1.06017e-12 0)
(-6.80541e-29 1.05557e-12 0)
(0 1.05235e-12 0)
(0 1.05142e-12 0)
(-6.71056e-29 1.04296e-12 0)
(0 1.03431e-12 0)
(0 1.03258e-12 0)
(0 1.03117e-12 0)
(0 1.02952e-12 0)
(-6.55524e-29 1.02826e-12 0)
(-6.52415e-29 1.01858e-12 0)
(6.49336e-29 1.01348e-12 0)
(0 1.01682e-12 0)
(0 1.01249e-12 0)
(0 1.00181e-12 0)
(0 9.9501e-13 0)
(6.34364e-29 9.95007e-13 0)
(6.31039e-29 9.96295e-13 0)
(0 9.93404e-13 0)
(0 9.8847e-13 0)
(0 9.85427e-13 0)
(0 9.79913e-13 0)
(0 9.74874e-13 0)
(0 9.738e-13 0)
(0 9.69076e-13 0)
(0 9.63554e-13 0)
(0 9.61117e-13 0)
(0 9.58114e-13 0)
(0 9.53946e-13 0)
(0 9.50431e-13 0)
(5.94056e-29 9.51133e-13 0)
(0 9.48658e-13 0)
(-1.1765e-28 9.40242e-13 0)
(0 9.36247e-13 0)
(0 9.35654e-13 0)
(0 9.30752e-13 0)
(0 9.24896e-13 0)
(0 9.2204e-13 0)
(0 9.19057e-13 0)
(0 9.1567e-13 0)
(0 9.12709e-13 0)
(0 9.09592e-13 0)
(0 9.01527e-13 0)
(5.58564e-29 8.95844e-13 0)
(5.56306e-29 8.97613e-13 0)
(-5.53428e-29 8.924e-13 0)
(0 8.84395e-13 0)
(0 8.81146e-13 0)
(0 8.77756e-13 0)
(0 8.77015e-13 0)
(-1.08138e-28 8.73685e-13 0)
(0 8.6869e-13 0)
(0 8.67298e-13 0)
(0 8.62238e-13 0)
(0 8.57375e-13 0)
(0 8.56105e-13 0)
(0 8.52835e-13 0)
(0 8.49748e-13 0)
(0 8.47445e-13 0)
(-5.1828e-29 8.39074e-13 0)
(5.15782e-29 8.37858e-13 0)
(0 8.42042e-13 0)
(0 8.39154e-13 0)
(0 8.3169e-13 0)
(0 8.2534e-13 0)
(0 8.24156e-13 0)
(0 8.25059e-13 0)
(-4.99204e-29 8.21824e-13 0)
(0 8.12368e-13 0)
(0 8.08006e-13 0)
(-4.92062e-29 8.06799e-13 0)
(0 8.05739e-13 0)
(-9.75154e-29 7.95391e-13 0)
(4.85365e-29 7.84922e-13 0)
(0 7.80667e-13 0)
(9.61523e-29 7.81623e-13 0)
(9.57222e-29 7.87643e-13 0)
(0 7.84477e-13 0)
(0 7.74327e-13 0)
(0 7.68086e-13 0)
(0 7.67859e-13 0)
(-4.67459e-29 7.63856e-13 0)
(0 7.5989e-13 0)
(0 7.55824e-13 0)
(0 7.49719e-13 0)
(0 7.49595e-13 0)
(0 7.49508e-13 0)
(0 7.44492e-13 0)
(0 7.40465e-13 0)
(0 7.39344e-13 0)
(0 7.42023e-13 0)
(-8.92047e-29 7.37031e-13 0)
(-8.87525e-29 7.18905e-13 0)
(8.8386e-29 7.15064e-13 0)
(0 7.25192e-13 0)
(0 7.29526e-13 0)
(-1.74213e-28 7.16282e-13 0)
(-8.67145e-29 6.96777e-13 0)
(0 7.00389e-13 0)
(0 7.05749e-13 0)
(0 7.0554e-13 0)
(-8.51052e-29 7.03447e-13 0)
(0 6.96847e-13 0)
(0 6.94913e-13 0)
(-8.39185e-29 6.89326e-13 0)
(0 6.8365e-13 0)
(0 6.83371e-13 0)
(0 6.83221e-13 0)
(0 6.76916e-13 0)
(0 6.69564e-13 0)
(-8.15726e-29 6.63161e-13 0)
(8.11943e-29 6.63854e-13 0)
(0 6.69797e-13 0)
(-8.04482e-29 6.62763e-13 0)
(0 6.59075e-13 0)
(0 6.55359e-13 0)
(0 6.49076e-13 0)
(0 6.53887e-13 0)
(0 6.51946e-13 0)
(-7.81945e-29 6.40776e-13 0)
(0 6.32216e-13 0)
(0 6.31214e-13 0)
(0 6.30145e-13 0)
(0 6.19096e-13 0)
(7.63955e-29 6.28717e-13 0)
(0 6.33477e-13 0)
(0 6.16027e-13 0)
(7.53199e-29 6.17384e-13 0)
(0 6.21204e-13 0)
(0 6.18547e-13 0)
(0 6.1032e-13 0)
(0 6.02839e-13 0)
(0 6.02513e-13 0)
(0 6.02268e-13 0)
(0 6.04398e-13 0)
(-7.25397e-29 6.01749e-13 0)
(-7.22133e-29 5.91295e-13 0)
(-7.18631e-29 5.82406e-13 0)
(0 5.81334e-13 0)
(0 5.83457e-13 0)
(0 5.84035e-13 0)
(0 5.86048e-13 0)
(0 5.80387e-13 0)
(0 5.68695e-13 0)
(0 5.69153e-13 0)
(-6.92283e-29 5.7114e-13 0)
(0 5.68555e-13 0)
(-6.85628e-29 5.61629e-13 0)
(6.82712e-29 5.65065e-13 0)
(0 5.68421e-13 0)
(-6.76239e-29 5.54159e-13 0)
(0 5.50157e-13 0)
(0 5.56334e-13 0)
(-6.66642e-29 5.56824e-13 0)
(-6.63656e-29 5.50109e-13 0)
(0 5.49024e-13 0)
(0 5.47898e-13 0)
(0 5.45342e-13 0)
(0 5.48556e-13 0)
(-6.48243e-29 5.41919e-13 0)
(0 5.36637e-13 0)
(-6.42191e-29 5.35614e-13 0)
(0 5.33127e-13 0)
(0 5.36201e-13 0)
(0 5.36511e-13 0)
(0 5.28614e-13 0)
(6.27339e-29 5.30275e-13 0)
(-6.24086e-29 5.33233e-13 0)
(0 5.28076e-13 0)
(-6.18475e-29 5.21711e-13 0)
(0 5.21944e-13 0)
(0 5.28871e-13 0)
(0 5.29085e-13 0)
(0 5.29243e-13 0)
(0 5.20221e-13 0)
(0 5.13859e-13 0)
(0 5.23192e-13 0)
(0 5.33697e-13 0)
(-1.18555e-28 5.11934e-13 0)
(0 4.87731e-13 0)
(1.17471e-28 5.08434e-13 0)
(0 5.25102e-13 0)
(-1.16335e-28 5.1373e-13 0)
(-2.31621e-28 4.99989e-13 0)
(0 5.02671e-13 0)
(0 5.17825e-13 0)
(-3.42591e-28 5.01748e-13 0)
(-1.13624e-28 4.75761e-13 0)
(0 4.79681e-13 0)
(0 4.87286e-13 0)
(0 4.89879e-13 0)
(0 4.93593e-13 0)
(-1.11005e-28 4.81578e-13 0)
(0 4.79235e-13 0)
(-1.0999e-28 4.80616e-13 0)
(0 4.73472e-13 0)
(-1.08933e-28 4.7355e-13 0)
(0 4.72476e-13 0)
(0 4.65594e-13 0)
(1.07444e-28 4.64495e-13 0)
(-1.06907e-28 4.646e-13 0)
(0 4.57703e-13 0)
(0 4.56663e-13 0)
(-1.05444e-28 4.39623e-13 0)
(1.04927e-28 4.46517e-13 0)
(0 4.62568e-13 0)
(0 4.50182e-13 0)
(0 4.49027e-13 0)
(0 4.52407e-13 0)
(0 4.4915e-13 0)
(0 4.48099e-13 0)
(0 4.4258e-13 0)
(-2.02144e-28 4.34894e-13 0)
(0 4.36013e-13 0)
(-2.00253e-28 4.39353e-13 0)
(0 4.33985e-13 0)
(-9.91725e-29 4.18921e-13 0)
(0 4.15746e-13 0)
(0 4.21175e-13 0)
(0 4.19089e-13 0)
(0 4.19123e-13 0)
(-9.68778e-29 4.13939e-13 0)
(0 4.03528e-13 0)
(0 3.94233e-13 0)
(9.55322e-29 4.10803e-13 0)
(0 4.1911e-13 0)
(0 3.98578e-13 0)
(0 3.94544e-13 0)
(0 4.00663e-13 0)
(-9.33106e-29 3.94632e-13 0)
(0 3.84608e-13 0)
(0 3.84702e-13 0)
(1.84035e-28 3.86746e-13 0)
(0 3.80832e-13 0)
(0 3.78883e-13 0)
(1.81435e-28 3.90873e-13 0)
(0 3.92812e-13 0)
(0 3.84804e-13 0)
(0 3.78987e-13 0)
(-1.78038e-28 3.7511e-13 0)
(-1.77219e-28 3.75112e-13 0)
(0 3.73232e-13 0)
(0 3.61893e-13 0)
(8.73636e-29 3.63733e-13 0)
(0 3.78701e-13 0)
(-8.65586e-29 3.67511e-13 0)
(0 3.52618e-13 0)
(0 3.6184e-13 0)
(-8.53503e-29 3.56394e-13 0)
(0 3.49022e-13 0)
(0 3.56286e-13 0)
(-1.68314e-28 3.50883e-13 0)
(-8.37543e-29 3.36517e-13 0)
(0 3.36498e-13 0)
(0 3.4189e-13 0)
(0 3.38359e-13 0)
(0 3.38337e-13 0)
(0 3.38296e-13 0)
(8.14175e-29 3.29598e-13 0)
(8.10577e-29 3.27861e-13 0)
(0 3.38151e-13 0)
(0 3.48295e-13 0)
(-7.99141e-29 3.34647e-13 0)
(0 3.05843e-13 0)
(0 2.97486e-13 0)
(7.87863e-29 3.17595e-13 0)
(0 3.2929e-13 0)
(0 3.17599e-13 0)
(1.5538e-28 3.19181e-13 0)
(-1.54662e-28 3.15919e-13 0)
(0 3.07698e-13 0)
(0 3.07668e-13 0)
(0 3.01216e-13 0)
(0 2.89987e-13 0)
(3.02107e-28 3.05962e-13 0)
(0 3.25039e-13 0)
(-1.49587e-28 3.09048e-13 0)
(0 2.90028e-13 0)
(0 2.8996e-13 0)
(0 2.9945e-13 0)
(0 2.99564e-13 0)
(0 2.91563e-13 0)
(0 2.83655e-13 0)
(0 2.80781e-13 0)
(0 2.91521e-13 0)
(0 2.95805e-13 0)
(0 2.96936e-13 0)
(-1.42135e-28 3.05732e-13 0)
(0 2.93863e-13 0)
(0 2.64593e-13 0)
(0 2.54368e-13 0)
(1.39308e-28 2.74469e-13 0)
(0 2.84651e-13 0)
(0 2.76168e-13 0)
(0 2.75966e-13 0)
(0 2.84094e-13 0)
(-1.36108e-28 2.68372e-13 0)
(0 2.52897e-13 0)
(0 2.6563e-13 0)
(0 2.78222e-13 0)
(-2.6749e-28 2.6839e-13 0)
(-1.33052e-28 2.58382e-13 0)
(-1.32366e-28 2.52863e-13 0)
(0 2.5563e-13 0)
(0 2.59675e-13 0)
(-1.30572e-28 2.44623e-13 0)
(0 2.49915e-13 0)
(0 2.69998e-13 0)
(-2.57649e-28 2.5803e-13 0)
(0 2.36665e-13 0)
(0 2.35202e-13 0)
(0 2.57094e-13 0)
(0 2.73904e-13 0)
(0 2.59752e-13 0)
(-1.25264e-28 2.37786e-13 0)
(0 2.23496e-13 0)
(2.48107e-28 2.47504e-13 0)
(0 2.61382e-13 0)
(0 2.42372e-13 0)
(1.22281e-28 2.53297e-13 0)
(0 2.66743e-13 0)
(-2.42255e-28 2.45746e-13 0)
(-1.20748e-28 2.20027e-13 0)
(0 2.11321e-13 0)
(0 2.07588e-13 0)
(0 2.1116e-13 0)
(1.18337e-28 2.31454e-13 0)
(0 2.2548e-13 0)
(1.17256e-28 2.12231e-13 0)
(0 2.22643e-13 0)
(0 2.23772e-13 0)
(0 2.17911e-13 0)
(0 2.19017e-13 0)
(0 2.0858e-13 0)
(0 1.98179e-13 0)
(0 2.21965e-13 0)
(-2.25916e-28 2.29774e-13 0)
(0 2.06016e-13 0)
(1.11973e-28 2.15949e-13 0)
(-3.33976e-28 1.97056e-13 0)
(0 1.82403e-13 0)
(0 2.18638e-13 0)
(-2.19479e-28 2.08784e-13 0)
(-2.18545e-28 1.66415e-13 0)
(1.08656e-28 1.63214e-13 0)
(0 1.77373e-13 0)
(1.07744e-28 1.82605e-13 0)
(0 1.91951e-13 0)
(0 1.9714e-13 0)
(-3.18775e-28 1.71104e-13 0)
(0 1.51299e-13 0)
(-1.05242e-28 1.60801e-13 0)
(0 1.63991e-13 0)
(0 1.69032e-13 0)
(-1.03684e-28 1.53818e-13 0)
(0 1.48871e-13 0)
(0 1.76064e-13 0)
(-1.02307e-28 1.69092e-13 0)
(0 1.4028e-13 0)
(2.02729e-28 1.5704e-13 0)
(0 1.7963e-13 0)
(0 1.78578e-13 0)
(-9.99185e-29 1.56304e-13 0)
(0 1.399e-13 0)
(0 1.48632e-13 0)
(0 1.51595e-13 0)
(0 1.50733e-13 0)
(0 1.51665e-13 0)
(0 1.56233e-13 0)
(-9.6659e-29 1.46069e-13 0)
(0 1.41426e-13 0)
(0 1.46033e-13 0)
(-1.90686e-28 1.37956e-13 0)
(0 1.29975e-13 0)
(0 1.30907e-13 0)
(0 1.15877e-13 0)
(1.86983e-28 1.02654e-13 0)
(1.86305e-28 1.30172e-13 0)
(0 1.48718e-13 0)
(0 1.4777e-13 0)
(-1.83641e-28 1.31344e-13 0)
(-1.82769e-28 1.08166e-13 0)
(0 1.12621e-13 0)
(0 1.28948e-13 0)
(0 1.26458e-13 0)
(0 1.10533e-13 0)
(0 1.16444e-13 0)
(-1.7771e-28 1.29009e-13 0)
(-1.76894e-28 1.15114e-13 0)
(0 9.80411e-14 0)
(0 1.07093e-13 0)
(0 1.12919e-13 0)
(0 1.01006e-13 0)
(0 1.08272e-13 0)
(-1.71958e-28 1.17136e-13 0)
(-1.71194e-28 9.75919e-14 0)
(0 9.37578e-14 0)
(0 1.21076e-13 0)
(0 1.11175e-13 0)
(-1.6802e-28 7.97493e-14 0)
(0 8.52568e-14 0)
(0 9.08456e-14 0)
(0 9.32934e-14 0)
(0 9.87396e-14 0)
(-1.64083e-28 8.61873e-14 0)
(0 7.96444e-14 0)
(0 8.20994e-14 0)
(0 7.86995e-14 0)
(0 7.52919e-14 0)
(1.60327e-28 8.91535e-14 0)
(0 9.43779e-14 0)
(0 8.80548e-14 0)
(0 7.90433e-14 0)
(0 7.56429e-14 0)
(0 7.79965e-14 0)
(0 7.47189e-14 0)
(0 8.24982e-14 0)
(0 9.01578e-14 0)
(0 7.87313e-14 0)
(0 7.00631e-14 0)
(0 8.03501e-14 0)
(0 7.72109e-14 0)
(0 7.66304e-14 0)
(0 7.88083e-14 0)
(0 6.78854e-14 0)
(0 6.73912e-14 0)
(0 7.72147e-14 0)
(-1.47299e-28 7.16519e-14 0)
(-1.46598e-28 6.10003e-14 0)
(-1.45904e-28 6.05963e-14 0)
(0 6.01935e-14 0)
(0 6.72473e-14 0)
(-1.4386e-28 5.69836e-14 0)
(1.43192e-28 5.64978e-14 0)
(0 6.84199e-14 0)
(0 5.34262e-14 0)
(-1.41223e-28 3.85919e-14 0)
(0 4.06811e-14 0)
(-1.39813e-28 4.28108e-14 0)
(-1.39182e-28 4.24881e-14 0)
(0 4.9267e-14 0)
(-1.37936e-28 2.80468e-14 0)
(0 1.15444e-14 0)
(0 2.29731e-14 0)
(0 2.96736e-14 0)
(0 3.62799e-14 0)
(-1.34798e-28 3.38329e-14 0)
(-1.34094e-28 2.01668e-14 0)
(0 4.46365e-15 0)
(0 6.5784e-15 0)
(0 1.75423e-14 0)
(0 2.82715e-14 0)
(-1.30904e-28 2.5992e-14 0)
(0 1.28841e-14 0)
(0 1.49307e-14 0)
(0 1.90679e-14 0)
(0 2.73439e-14 0)
(-1.27969e-28 2.71966e-14 0)
(-1.27229e-28 1.86855e-14 0)
(0 1.64918e-14 0)
(-1.26084e-28 1.43372e-14 0)
(0 1.62529e-14 0)
(0 2.22113e-14 0)
(0 2.60754e-14 0)
(0 3.98174e-14 0)
(0 4.94822e-14 0)
(0 3.93251e-14 0)
(0 2.73254e-14 0)
(0 4.06442e-14 0)
(0 5.00857e-14 0)
(-1.20371e-28 3.63447e-14 0)
(0 3.79313e-14 0)
(0 5.08629e-14 0)
(0 5.42972e-14 0)
(0 6.31764e-14 0)
(-2.35049e-28 4.44011e-14 0)
(0 2.74368e-14 0)
(0 4.72925e-14 0)
(0 5.24154e-14 0)
(-1.15325e-28 4.48819e-14 0)
(0 4.45428e-14 0)
(0 3.72059e-14 0)
(1.13708e-28 3.85841e-14 0)
(0 5.23235e-14 0)
(0 5.02524e-14 0)
(0 4.47514e-14 0)
(0 3.92891e-14 0)
(1.11085e-28 5.08123e-14 0)
(-1.10606e-28 5.72578e-14 0)
(0 4.01488e-14 0)
(0 3.64874e-14 0)
(0 4.77627e-14 0)
(-1.08503e-28 4.90829e-14 0)
(0 4.87196e-14 0)
(0 4.84055e-14 0)
(0 5.1227e-14 0)
(0 6.03999e-14 0)
(0 7.25759e-14 0)
(-1.0553e-28 5.96334e-14 0)
(0 3.42327e-14 0)
(0 3.0881e-14 0)
(2.08068e-28 6.73222e-14 0)
(0 8.83518e-14 0)
(0 6.05123e-14 0)
(0 5.39921e-14 0)
(0 6.25382e-14 0)
(0 6.80017e-14 0)
(0 7.33702e-14 0)
(0 6.41414e-14 0)
(0 5.49535e-14 0)
(0 5.45743e-14 0)
(0 4.56323e-14 0)
(1.97658e-28 7.06366e-14 0)
(-1.96649e-28 8.71342e-14 0)
(0 7.2507e-14 0)
(-1.94908e-28 7.19828e-14 0)
(0 6.86942e-14 0)
(-1.92955e-28 5.72827e-14 0)
(0 5.41182e-14 0)
(1.91278e-28 7.25195e-14 0)
(0 5.34726e-14 0)
(1.89397e-28 3.4364e-14 0)
(0 4.99219e-14 0)
(0 5.73654e-14 0)
(0 6.98751e-14 0)
(-1.85968e-28 6.42911e-14 0)
(-1.84963e-28 3.82974e-14 0)
(0 2.02634e-14 0)
(0 3.00924e-14 0)
(0 5.48397e-14 0)
(-1.81692e-28 4.71096e-14 0)
(0 1.96901e-14 0)
(0 1.7033e-14 0)
(0 2.90147e-14 0)
(0 3.84062e-14 0)
(0 3.34012e-14 0)
(0 2.36485e-14 0)
(0 3.51707e-14 0)
(0 4.19568e-14 0)
(-1.74095e-28 1.85634e-14 0)
(0 4.56473e-15 0)
(0 2.0446e-14 0)
(0 2.9384e-14 0)
(0 2.69092e-14 0)
(0 2.89275e-14 0)
(-1.69313e-28 2.43229e-14 0)
(0 1.97106e-14 0)
(1.67654e-28 3.47489e-14 0)
(-1.66928e-28 3.24386e-14 0)
(0 2.1403e-14 0)
(0 3.39697e-14 0)
(0 3.79695e-14 0)
(0 2.51384e-14 0)
(0 2.90287e-14 0)
(0 3.71099e-14 0)
(-1.61419e-28 2.6599e-14 0)
(-1.60745e-28 1.42214e-14 0)
(0 2.03269e-15 0)
(0 5.94915e-15 0)
(0 2.57271e-14 0)
(0 3.73649e-14 0)
(0 1.76478e-14 0)
(0 1.15506e-14 0)
(0 3.07203e-14 0)
(0 4.0013e-14 0)
(0 3.59744e-14 0)
(0 1.87885e-14 0)
(-1.52624e-28 9.31206e-15 0)
(0 1.8429e-14 0)
(0 1.65446e-14 0)
(0 -3.61262e-15 0)
(0 -9.03259e-15 0)
(1.4908e-28 7.10203e-15 0)
(0 1.95449e-14 0)
(0 1.41085e-14 0)
(0 1.22232e-14 0)
(0 1.73231e-14 0)
(-1.45628e-28 8.6466e-15 0)
(0 -1.76092e-17 0)
(0 1.51899e-14 0)
(0 1.02161e-16 0)
(1.42926e-28 4.87243e-15 0)
(0 3.8028e-14 0)
(-1.41612e-28 2.62997e-14 0)
(0 2.92207e-14 0)
(-1.40259e-28 3.07252e-14 0)
(-2.79247e-28 4.84621e-15 0)
(-2.77862e-28 -2.21802e-14 0)
(0 -1.74205e-14 0)
(0 4.67994e-15 0)
(0 1.2378e-14 0)
(0 9.26411e-15 0)
(0 6.07743e-15 0)
(-1.35094e-28 1.81397e-14 0)
(-1.34445e-28 2.70174e-14 0)
(-2.67723e-28 1.19879e-14 0)
(0 -2.97053e-15 0)
(0 1.16736e-14 0)
(0 1.45693e-14 0)
(0 1.15126e-14 0)
(-1.30738e-28 5.76663e-15 0)
(0 5.62626e-15 0)
(-1.29474e-28 1.12796e-14 0)
(-1.28879e-28 2.80013e-15 0)
(-1.28288e-28 -5.52037e-15 0)
(0 -5.52033e-15 0)
(-1.27072e-28 -8.14439e-15 0)
(1.26498e-28 1.07025e-14 0)
(0 4.55427e-14 0)
(-3.75791e-28 1.08063e-14 0)
(0 -1.85199e-14 0)
(0 1.56104e-14 0)
(0 3.63261e-14 0)
(-2.45929e-28 7.835e-15 0)
(0 -1.0253e-14 0)
(-1.21846e-28 -2.52466e-15 0)
(0 1.24843e-14 0)
(0 1.50065e-14 0)
(0 9.83835e-15 0)
(-1.19577e-28 1.47202e-14 0)
(0 1.21411e-14 0)
(0 3.1263e-14 0)
(-2.35768e-28 2.87634e-14 0)
(-3.52036e-28 -9.40833e-15 0)
(-1.16767e-28 -2.58801e-14 0)
(1.16239e-28 6.87496e-15 0)
(-1.15715e-28 3.70197e-14 0)
(0 3.44276e-14 0)
(-2.29192e-28 9.19365e-15 0)
(0 -1.35451e-14 0)
(1.1354e-28 -4.51662e-15 0)
(2.25998e-28 2.65528e-14 0)
(0 4.18687e-14 0)
(0 3.27688e-14 0)
(0 2.38524e-14 0)
(0 2.36042e-14 0)
(0 2.55861e-14 0)
(0 2.53399e-14 0)
(0 2.09915e-14 0)
(2.17696e-28 1.66138e-14 0)
(0 1.85658e-14 0)
(2.15639e-28 3.67252e-14 0)
(0 3.45706e-14 0)
(0 1.40717e-14 0)
(0 3.98049e-14 0)
(0 5.54364e-14 0)
(0 4.12297e-14 0)
(0 3.50296e-14 0)
(0 3.85941e-14 0)
(0 4.59343e-14 0)
(-2.06673e-28 3.80205e-14 0)
(0 3.01189e-14 0)
(0 3.73466e-14 0)
(0 3.33804e-14 0)
(0 3.67118e-14 0)
(-2.01932e-28 4.92033e-14 0)
(-2.00945e-28 2.00076e-14 0)
(0 1.74156e-15 0)
(0 2.66244e-14 0)
(-1.98166e-28 3.00202e-14 0)
(-1.97215e-28 1.40218e-14 0)
(0 1.03963e-14 0)
(0 1.3768e-14 0)
(1.94477e-28 2.55554e-14 0)
(0 3.8938e-14 0)
(0 2.8602e-14 0)
(0 2.49534e-14 0)
(0 2.81081e-14 0)
(0 1.80462e-14 0)
(0 6.52716e-15 0)
(0 1.12398e-14 0)
(0 3.03539e-14 0)
(-1.86418e-28 1.59532e-14 0)
(3.71152e-28 2.97526e-14 0)
(-1.84686e-28 4.37959e-14 0)
(0 2.47607e-14 0)
(0 2.61134e-14 0)
(-1.82121e-28 1.83048e-14 0)
(0 1.35949e-14 0)
(0 2.54424e-14 0)
(0 3.42053e-14 0)
(0 2.80383e-14 0)
(0 2.19513e-14 0)
(0 3.18858e-14 0)
(-1.76186e-28 3.17202e-14 0)
(0 2.5683e-14 0)
(0 3.11698e-14 0)
(0 2.81197e-14 0)
(-1.72923e-28 8.43084e-15 0)
(0 2.72192e-15 0)
(1.71337e-28 2.1918e-14 0)
(0 2.58731e-14 0)
(0 2.16021e-14 0)
(0 2.54329e-14 0)
(0 2.65852e-14 0)
(0 1.58501e-14 0)
(0 7.84554e-15 0)
(0 1.55328e-14 0)
(0 9.06288e-15 0)
(0 -2.56357e-15 0)
(1.63474e-28 1.51362e-14 0)
(0 2.01413e-14 0)
(0 -4.92694e-15 0)
(0 -7.46897e-15 0)
(0 4.90562e-15 0)
(0 9.71319e-15 0)
(0 2.16964e-14 0)
(-1.58187e-28 4.88594e-15 0)
(-1.5742e-28 -2.13692e-14 0)
(0 -1.41766e-14 0)
(0 2.30946e-15 0)
(0 4.65674e-15 0)
(0 -2.29096e-15 0)
(0 6.7989e-15 0)
(-1.53079e-28 6.83548e-15 0)
(0 -4.49025e-15 0)
(0 -2.23613e-15 0)
(0 4.39908e-15 0)
(0 2.21709e-15 0)
(0 -1.76551e-17 0)
(0 6.45798e-15 0)
(-1.48113e-28 -4.22217e-15 0)
(0 -1.48503e-14 0)
(1.46738e-28 1.04197e-14 0)
(-2.92084e-28 1.67542e-14 0)
(0 1.02979e-14 0)
(-1.44671e-28 1.84679e-14 0)
(-1.43995e-28 1.62722e-14 0)
(-2.8665e-28 -1.94154e-15 0)
(0 -1.20355e-14 0)
(0 -1.69937e-17 0)
(0 1.97475e-15 0)
(0 9.70746e-15 0)
(0 1.93326e-14 0)
(-1.39339e-28 7.71669e-15 0)
(0 -1.65625e-17 0)
(0 9.39483e-15 0)
(-1.37413e-28 7.50298e-15 0)
(0 1.84296e-15 0)
(0 1.28029e-14 0)
(-1.3545e-28 5.52781e-15 0)
(0 -1.08158e-14 0)
(0 -5.38372e-15 0)
(0 1.76266e-15 0)
(0 5.25597e-15 0)
(-1.32309e-28 3.18605e-17 0)
(0 -1.74634e-15 0)
(0 1.12215e-14 0)
(-1.30461e-28 9.50639e-15 0)
)
;

boundaryField
{
    INLET
    {
        type            cyclic;
    }
    OUTLET
    {
        type            cyclic;
    }
    CENTER
    {
        type            symmetryPlane;
    }
    WALL
    {
        type            extrapolatedCalculated;
        value           uniform (0 3.7551e-12 0);
    }
    frontAndBackPlanes
    {
        type            empty;
    }
}


// ************************************************************************* //
