/*--------------------------------*- C++ -*----------------------------------*\
| =========                 |                                                 |
| \\      /  F ield         | OpenFOAM: The Open Source CFD Toolbox           |
|  \\    /   O peration     | Version:  v1806                                 |
|   \\  /    A nd           | Web:      www.OpenFOAM.com                      |
|    \\/     M anipulation  |                                                 |
\*---------------------------------------------------------------------------*/
FoamFile
{
    version     2.0;
    format      ascii;
    class       volScalarField;
    location    "10000";
    object      k;
}
// * * * * * * * * * * * * * * * * * * * * * * * * * * * * * * * * * * * * * //

dimensions      [0 2 -2 0 0 0 0];


internalField   nonuniform List<scalar> 
1025
(
7.15821e-06
0.000104662
0.000318299
0.000650041
0.00110053
0.00166751
0.00234272
0.00310717
0.00392772
0.00476097
0.00556536
0.00631223
0.00698825
0.00759184
0.00812808
0.00860503
0.00903131
0.00941494
0.00976285
0.0100808
0.0103736
0.0106451
0.0108983
0.0111359
0.01136
0.0115723
0.0117742
0.0119669
0.0121514
0.0123287
0.0124995
0.0126643
0.0128238
0.0129785
0.0131287
0.0132749
0.0134173
0.0135563
0.0136922
0.0138251
0.0139553
0.014083
0.0142084
0.0143316
0.0144528
0.014572
0.0146895
0.0148053
0.0149195
0.0150323
0.0151437
0.0152538
0.0153627
0.0154704
0.015577
0.0156827
0.0157873
0.0158911
0.015994
0.016096
0.0161974
0.016298
0.0163979
0.0164972
0.0165958
0.0166939
0.0167915
0.0168885
0.0169851
0.0170812
0.0171769
0.0172722
0.0173671
0.0174617
0.0175559
0.0176499
0.0177435
0.0178368
0.01793
0.0180228
0.0181155
0.0182079
0.0183002
0.0183923
0.0184842
0.018576
0.0186677
0.0187592
0.0188507
0.018942
0.0190333
0.0191245
0.0192156
0.0193067
0.0193978
0.0194888
0.0195798
0.0196708
0.0197618
0.0198528
0.0199438
0.0200349
0.020126
0.0202171
0.0203082
0.0203995
0.0204907
0.0205821
0.0206735
0.020765
0.0208566
0.0209482
0.02104
0.0211319
0.0212239
0.021316
0.0214082
0.0215005
0.021593
0.0216856
0.0217784
0.0218712
0.0219643
0.0220575
0.0221508
0.0222444
0.022338
0.0224319
0.0225259
0.0226201
0.0227145
0.022809
0.0229038
0.0229987
0.0230939
0.0231892
0.0232847
0.0233805
0.0234764
0.0235726
0.023669
0.0237655
0.0238623
0.0239594
0.0240566
0.0241541
0.0242518
0.0243498
0.0244479
0.0245463
0.024645
0.0247439
0.024843
0.0249424
0.025042
0.0251419
0.025242
0.0253424
0.0254431
0.025544
0.0256451
0.0257465
0.0258482
0.0259502
0.0260524
0.0261549
0.0262576
0.0263606
0.0264639
0.0265675
0.0266713
0.0267755
0.0268799
0.0269846
0.0270895
0.0271948
0.0273003
0.0274061
0.0275123
0.0276187
0.0277253
0.0278323
0.0279395
0.0280471
0.028155
0.0282631
0.0283716
0.0284803
0.0285893
0.0286986
0.0288083
0.0289182
0.0290284
0.029139
0.0292498
0.029361
0.0294724
0.0295842
0.0296962
0.0298086
0.0299213
0.0300342
0.0301475
0.0302611
0.030375
0.0304892
0.0306038
0.0307186
0.0308338
0.0309493
0.031065
0.0311811
0.0312975
0.0314142
0.0315313
0.0316486
0.0317662
0.0318842
0.0320025
0.0321211
0.0322401
0.0323593
0.0324788
0.0325987
0.0327189
0.0328394
0.0329603
0.0330814
0.0332029
0.0333247
0.0334468
0.0335692
0.033692
0.0338151
0.0339384
0.0340621
0.0341861
0.0343104
0.0344351
0.0345601
0.0346854
0.034811
0.0349369
0.0350632
0.0351898
0.0353166
0.0354439
0.0355714
0.0356992
0.0358274
0.0359559
0.0360847
0.0362138
0.0363432
0.036473
0.0366031
0.0367335
0.0368642
0.0369952
0.0371265
0.0372582
0.0373902
0.0375225
0.0376551
0.037788
0.0379212
0.0380548
0.0381887
0.0383228
0.0384573
0.0385921
0.0387272
0.0388627
0.0389984
0.0391344
0.0392708
0.0394075
0.0395444
0.0396817
0.0398194
0.0399573
0.0400955
0.040234
0.0403729
0.040512
0.0406514
0.0407912
0.0409312
0.0410716
0.0412123
0.0413532
0.0414945
0.041636
0.0417779
0.0419201
0.0420626
0.0422053
0.0423484
0.0424918
0.0426355
0.0427794
0.0429237
0.0430682
0.043213
0.0433582
0.0435036
0.0436493
0.0437953
0.0439416
0.0440882
0.0442351
0.0443822
0.0445297
0.0446774
0.0448255
0.0449738
0.0451223
0.0452712
0.0454204
0.0455698
0.0457195
0.0458695
0.0460198
0.0461703
0.0463211
0.0464722
0.0466236
0.0467752
0.0469271
0.0470793
0.0472318
0.0473845
0.0475375
0.0476908
0.0478442
0.047998
0.0481521
0.0483064
0.048461
0.0486158
0.0487709
0.0489262
0.0490818
0.0492377
0.0493938
0.0495501
0.0497067
0.0498636
0.0500207
0.050178
0.0503356
0.0504935
0.0506516
0.0508099
0.0509685
0.0511273
0.0512863
0.0514456
0.0516051
0.0517649
0.0519249
0.0520851
0.0522455
0.0524062
0.0525671
0.0527282
0.0528896
0.0530511
0.0532129
0.0533749
0.0535372
0.0536996
0.0538623
0.0540252
0.0541882
0.0543515
0.054515
0.0546787
0.0548426
0.0550067
0.055171
0.0553356
0.0555003
0.0556652
0.0558303
0.0559956
0.0561611
0.0563268
0.0564927
0.0566587
0.0568249
0.0569913
0.0571579
0.0573247
0.0574916
0.0576588
0.0578261
0.0579936
0.0581612
0.058329
0.058497
0.0586651
0.0588334
0.0590018
0.0591705
0.0593392
0.0595081
0.0596772
0.0598464
0.0600158
0.0601853
0.0603549
0.0605247
0.0606946
0.0608647
0.0610349
0.0612052
0.0613756
0.0615462
0.0617169
0.0618878
0.0620587
0.0622298
0.062401
0.0625722
0.0627436
0.0629152
0.0630868
0.0632585
0.0634303
0.0636022
0.0637742
0.0639463
0.0641185
0.0642908
0.0644632
0.0646356
0.0648082
0.0649808
0.0651535
0.0653262
0.0654991
0.065672
0.0658449
0.066018
0.066191
0.0663641
0.0665373
0.0667106
0.0668838
0.0670572
0.0672306
0.067404
0.0675774
0.0677509
0.0679244
0.0680979
0.0682715
0.0684451
0.0686187
0.0687923
0.068966
0.0691396
0.0693132
0.0694869
0.0696605
0.0698342
0.0700078
0.0701814
0.070355
0.0705286
0.0707022
0.0708758
0.0710493
0.0712228
0.0713963
0.0715697
0.0717431
0.0719164
0.0720897
0.072263
0.0724362
0.0726093
0.0727824
0.0729554
0.0731284
0.0733012
0.073474
0.0736467
0.0738194
0.073992
0.0741644
0.0743368
0.0745091
0.0746812
0.0748533
0.0750253
0.0751971
0.0753688
0.0755405
0.0757119
0.0758833
0.0760545
0.0762256
0.0763966
0.0765674
0.0767381
0.0769086
0.0770789
0.0772492
0.0774192
0.0775891
0.0777588
0.0779283
0.0780977
0.0782669
0.0784359
0.0786047
0.0787733
0.0789418
0.07911
0.079278
0.0794457
0.0796133
0.0797806
0.0799477
0.0801146
0.0802812
0.0804476
0.0806138
0.0807797
0.0809453
0.0811106
0.0812757
0.0814406
0.0816051
0.0817694
0.0819334
0.0820971
0.0822605
0.0824237
0.0825865
0.082749
0.0829112
0.083073
0.0832346
0.0833958
0.0835567
0.0837172
0.0838774
0.0840373
0.0841968
0.0843559
0.0845147
0.0846732
0.0848313
0.0849889
0.0851461
0.0853031
0.0854597
0.0856157
0.0857713
0.0859267
0.0860817
0.0862362
0.0863903
0.0865437
0.0866969
0.0868497
0.087002
0.0871537
0.0873051
0.0874561
0.0876067
0.0877566
0.0879061
0.0880551
0.0882036
0.0883517
0.0884992
0.0886462
0.0887927
0.0889388
0.0890843
0.0892292
0.0893735
0.0895174
0.0896608
0.0898037
0.0899459
0.0900875
0.0902287
0.0903693
0.0905092
0.0906485
0.0907873
0.0909255
0.0910631
0.0912
0.0913363
0.091472
0.0916071
0.0917416
0.0918755
0.0920086
0.0921412
0.0922732
0.0924044
0.092535
0.0926648
0.0927941
0.0929226
0.0930504
0.0931775
0.0933039
0.0934296
0.0935547
0.093679
0.0938025
0.0939253
0.0940475
0.0941688
0.0942893
0.0944092
0.0945283
0.0946466
0.0947641
0.0948808
0.0949967
0.0951118
0.0952262
0.0953398
0.0954525
0.0955643
0.0956754
0.0957857
0.0958951
0.0960037
0.0961114
0.0962183
0.0963243
0.0964294
0.0965336
0.0966369
0.0967394
0.096841
0.0969416
0.0970414
0.0971403
0.0972382
0.0973352
0.0974313
0.0975264
0.0976206
0.0977138
0.0978061
0.0978974
0.0979878
0.0980772
0.0981655
0.0982529
0.0983393
0.0984247
0.0985091
0.0985924
0.0986748
0.0987561
0.0988364
0.0989156
0.0989938
0.099071
0.099147
0.099222
0.099296
0.0993689
0.0994407
0.0995114
0.099581
0.0996495
0.0997168
0.0997831
0.0998483
0.0999123
0.0999752
0.100037
0.100098
0.100157
0.100215
0.100272
0.100328
0.100383
0.100437
0.100489
0.10054
0.10059
0.100639
0.100687
0.100733
0.100778
0.100822
0.100865
0.100906
0.100947
0.100985
0.101023
0.10106
0.101095
0.101129
0.101161
0.101192
0.101222
0.101251
0.101278
0.101304
0.101329
0.101353
0.101375
0.101395
0.101415
0.101433
0.10145
0.101465
0.101479
0.101492
0.101503
0.101513
0.101521
0.101528
0.101534
0.101538
0.101541
0.101543
0.101543
0.101541
0.101539
0.101534
0.101529
0.101522
0.101513
0.101503
0.101492
0.101479
0.101464
0.101449
0.101431
0.101413
0.101392
0.10137
0.101347
0.101322
0.101296
0.101268
0.101239
0.101208
0.101176
0.101142
0.101107
0.10107
0.101031
0.100991
0.10095
0.100907
0.100862
0.100816
0.100768
0.100719
0.100668
0.100615
0.100561
0.100506
0.100449
0.10039
0.100329
0.100268
0.100204
0.100139
0.100072
0.100004
0.0999338
0.0998622
0.099789
0.0997142
0.0996378
0.0995598
0.0994801
0.0993988
0.0993159
0.0992314
0.0991452
0.0990574
0.098968
0.0988769
0.0987842
0.0986898
0.0985938
0.0984962
0.0983969
0.098296
0.0981934
0.0980892
0.0979833
0.0978758
0.0977667
0.0976558
0.0975433
0.0974292
0.0973135
0.0971961
0.097077
0.0969562
0.0968338
0.0967098
0.0965841
0.0964567
0.0963277
0.0961971
0.0960647
0.0959308
0.0957952
0.0956579
0.095519
0.0953785
0.0952363
0.0950924
0.094947
0.0947999
0.0946512
0.0945008
0.0943488
0.0941951
0.0940399
0.093883
0.0937245
0.0935644
0.0934026
0.0932393
0.0930744
0.0929078
0.0927397
0.09257
0.0923987
0.0922258
0.0920513
0.0918752
0.0916976
0.0915185
0.0913377
0.0911554
0.0909716
0.0907862
0.0905994
0.0904109
0.0902209
0.0900295
0.0898365
0.089642
0.0894461
0.0892487
0.0890498
0.0888494
0.0886476
0.0884444
0.0882397
0.0880336
0.087826
0.0876171
0.0874068
0.087195
0.086982
0.0867675
0.0865517
0.0863346
0.0861162
0.0858964
0.0856753
0.085453
0.0852294
0.0850045
0.0847784
0.084551
0.0843224
0.0840927
0.0838617
0.0836296
0.0833964
0.083162
0.0829264
0.0826899
0.0824522
0.0822134
0.0819736
0.0817328
0.081491
0.0812482
0.0810044
0.0807597
0.0805141
0.0802675
0.0800201
0.0797718
0.0795227
0.0792728
0.0790221
0.0787707
0.0785185
0.0782656
0.078012
0.0777578
0.077503
0.0772475
0.0769915
0.0767349
0.0764778
0.0762202
0.0759621
0.0757037
0.0754448
0.0751856
0.0749261
0.0746662
0.0744061
0.0741458
0.0738853
0.0736245
0.0733637
0.0731028
0.0728418
0.0725808
0.0723198
0.0720589
0.0717982
0.0715375
0.071277
0.0710167
0.0707568
0.0704971
0.0702378
0.0699788
0.0697203
0.0694623
0.0692048
0.0689479
0.0686916
0.068436
0.068181
0.0679269
0.0676735
0.067421
0.0671694
0.0669187
0.0666691
0.0664205
0.0661731
0.0659267
0.0656816
0.0654378
0.0651953
0.0649542
0.0647145
0.0644763
0.0642396
0.0640045
0.063771
0.0635393
0.0633094
0.0630812
0.062855
0.0626307
0.0624084
0.0621881
0.06197
0.061754
0.0615403
0.0613289
0.0611198
0.0609132
0.060709
0.0605074
0.0603084
0.0601121
0.0599185
0.0597276
0.0595397
0.0593546
0.0591726
0.0589936
0.0588177
0.058645
0.0584755
0.0583094
0.0581466
0.0579872
0.0578314
0.0576791
0.0575305
0.0573856
0.0572444
0.0571071
0.0569737
0.0568443
0.0567189
0.0565977
0.0564806
0.0563678
0.0562593
0.0561552
0.0560556
0.0559605
0.05587
0.0557842
0.0557032
0.055627
0.0555557
0.0554894
0.0554282
0.0553721
0.0553212
0.0552756
0.0552355
0.0552007
0.0551716
0.055148
0.0551302
0.0551182
0.055112
)
;

boundaryField
{
    INLET
    {
        type            cyclic;
    }
    OUTLET
    {
        type            cyclic;
    }
    CENTER
    {
        type            symmetryPlane;
    }
    WALL
    {
        type            fixedValue;
        value           uniform 1e-10;
    }
    frontAndBackPlanes
    {
        type            empty;
    }
}


// ************************************************************************* //
