/*--------------------------------*- C++ -*----------------------------------*\
| =========                 |                                                 |
| \\      /  F ield         | OpenFOAM: The Open Source CFD Toolbox           |
|  \\    /   O peration     | Version:  v1806                                 |
|   \\  /    A nd           | Web:      www.OpenFOAM.com                      |
|    \\/     M anipulation  |                                                 |
\*---------------------------------------------------------------------------*/
FoamFile
{
    version     2.0;
    format      ascii;
    class       volScalarField;
    location    "10000";
    object      k_DNS;
}
// * * * * * * * * * * * * * * * * * * * * * * * * * * * * * * * * * * * * * //

dimensions      [0 2 -2 0 0 0 0];


internalField   nonuniform List<scalar> 
1025
(
9.23588e-07
7.93719e-06
2.17141e-05
4.25201e-05
6.77922e-05
0.000103038
0.000140708
0.000189827
0.000239177
0.000301584
0.000367234
0.000434349
0.000518436
0.000602919
0.0006878
0.000791439
0.000896796
0.00100265
0.00111838
0.00124626
0.00137474
0.00150383
0.00164689
0.00179907
0.00195196
0.00210557
0.0022698
0.00244668
0.00262439
0.00280293
0.00298232
0.00318297
0.00338472
0.00358744
0.00379112
0.00400015
0.00422371
0.00444834
0.00467404
0.0049008
0.00513187
0.00537462
0.00561852
0.00586357
0.00610976
0.00635712
0.00661378
0.00687177
0.00713096
0.00739139
0.00765306
0.00791676
0.00818247
0.00844943
0.00871764
0.00898715
0.00925793
0.00952527
0.00979291
0.0100618
0.010332
0.0106035
0.0108762
0.0111378
0.0114003
0.011664
0.011929
0.0121952
0.0124626
0.0127131
0.0129639
0.0132158
0.0134688
0.0137231
0.0139786
0.0142163
0.0144497
0.0146842
0.0149198
0.0151566
0.0153944
0.0156199
0.0158318
0.0160448
0.0162588
0.0164738
0.0166898
0.0169045
0.0170924
0.0172812
0.0174709
0.0176614
0.0178529
0.0180452
0.0182211
0.0183844
0.0185486
0.0187135
0.0188791
0.0190456
0.0192128
0.0193515
0.0194901
0.0196294
0.0197693
0.0199099
0.0200512
0.020184
0.0202982
0.0204129
0.0205281
0.0206439
0.0207602
0.020877
0.0209787
0.0210704
0.0211627
0.0212553
0.0213484
0.0214419
0.0215359
0.0216105
0.0216818
0.0217535
0.0218255
0.0218979
0.0219706
0.0220425
0.0220953
0.0221484
0.0222017
0.0222552
0.022309
0.0223631
0.0224132
0.02245
0.022487
0.0225241
0.0225615
0.0225989
0.0226366
0.0226685
0.0226914
0.0227145
0.0227377
0.0227609
0.0227843
0.0228078
0.0228244
0.0228356
0.0228468
0.0228581
0.0228694
0.0228807
0.0228922
0.0228963
0.0228975
0.0228987
0.0229
0.0229012
0.0229025
0.0229037
0.0228977
0.0228907
0.0228837
0.0228766
0.0228695
0.0228624
0.0228548
0.0228411
0.0228274
0.0228136
0.0227997
0.0227858
0.0227718
0.0227564
0.0227373
0.0227182
0.0226989
0.0226796
0.0226602
0.0226407
0.0226193
0.022596
0.0225726
0.022549
0.0225254
0.0225016
0.0224778
0.022452
0.0224254
0.0223987
0.0223719
0.022345
0.0223179
0.0222906
0.0222618
0.0222328
0.0222037
0.0221744
0.022145
0.0221154
0.0220855
0.0220549
0.0220242
0.0219934
0.0219623
0.0219312
0.0218999
0.0218684
0.0218367
0.0218048
0.0217728
0.0217407
0.0217084
0.0216759
0.0216437
0.0216114
0.0215789
0.0215462
0.0215134
0.0214804
0.0214477
0.0214153
0.0213826
0.0213498
0.0213169
0.0212838
0.0212506
0.0212183
0.0211859
0.0211533
0.0211206
0.0210877
0.0210546
0.0210222
0.0209902
0.020958
0.0209257
0.0208933
0.0208607
0.0208282
0.0207968
0.0207652
0.0207336
0.0207017
0.0206698
0.0206376
0.0206067
0.0205759
0.020545
0.020514
0.0204828
0.0204514
0.0204208
0.0203909
0.0203608
0.0203306
0.0203003
0.0202699
0.0202397
0.0202107
0.0201816
0.0201523
0.020123
0.0200935
0.0200639
0.0200359
0.0200077
0.0199795
0.0199511
0.0199225
0.0198939
0.0198667
0.0198395
0.0198122
0.0197849
0.0197573
0.0197297
0.0197033
0.0196771
0.0196508
0.0196244
0.0195979
0.0195713
0.0195458
0.0195206
0.0194953
0.0194699
0.0194444
0.0194187
0.0193942
0.01937
0.0193457
0.0193212
0.0192966
0.0192719
0.0192485
0.0192252
0.0192018
0.0191783
0.0191546
0.0191309
0.0191086
0.0190861
0.0190636
0.019041
0.0190182
0.0189956
0.0189742
0.0189526
0.0189309
0.0189091
0.0188872
0.0188658
0.0188451
0.0188244
0.0188035
0.0187825
0.0187614
0.0187412
0.0187213
0.0187012
0.0186811
0.0186609
0.0186407
0.0186216
0.0186023
0.018583
0.0185636
0.0185441
0.0185251
0.0185066
0.0184881
0.0184694
0.0184507
0.0184318
0.018414
0.0183961
0.0183781
0.0183601
0.0183419
0.0183242
0.0183069
0.0182896
0.0182722
0.0182547
0.0182372
0.0182205
0.0182038
0.0181869
0.01817
0.018153
0.0181366
0.0181204
0.0181041
0.0180878
0.0180713
0.0180551
0.0180394
0.0180237
0.0180078
0.0179919
0.017976
0.0179608
0.0179455
0.0179301
0.0179147
0.0178992
0.0178843
0.0178694
0.0178545
0.0178395
0.0178244
0.0178098
0.0177953
0.0177808
0.0177662
0.0177515
0.0177371
0.017723
0.0177088
0.0176946
0.0176802
0.0176662
0.0176524
0.0176385
0.0176245
0.0176105
0.0175968
0.0175833
0.0175697
0.0175561
0.0175423
0.0175289
0.0175156
0.0175023
0.017489
0.0174756
0.0174624
0.0174494
0.0174364
0.0174232
0.0174101
0.0173972
0.0173844
0.0173716
0.0173587
0.0173457
0.0173331
0.0173206
0.0173079
0.0172952
0.0172825
0.0172701
0.0172577
0.0172452
0.0172326
0.0172201
0.0172079
0.0171956
0.0171832
0.0171708
0.0171586
0.0171464
0.0171342
0.017122
0.0171097
0.0170977
0.0170856
0.0170735
0.0170613
0.0170492
0.0170373
0.0170253
0.0170132
0.0170011
0.0169893
0.0169774
0.0169655
0.0169535
0.0169415
0.0169298
0.0169179
0.016906
0.0168941
0.0168824
0.0168706
0.0168588
0.016847
0.0168352
0.0168236
0.0168119
0.0168002
0.0167884
0.0167768
0.0167652
0.0167536
0.0167418
0.0167303
0.0167188
0.0167072
0.0166956
0.016684
0.0166725
0.016661
0.0166494
0.0166378
0.0166264
0.0166149
0.0166034
0.0165918
0.0165804
0.0165689
0.0165574
0.0165458
0.0165343
0.0165228
0.0165113
0.0164997
0.0164882
0.0164767
0.0164651
0.0164535
0.0164419
0.0164304
0.0164188
0.0164072
0.0163956
0.016384
0.0163724
0.0163607
0.016349
0.0163374
0.0163258
0.016314
0.0163023
0.0162906
0.0162789
0.0162671
0.0162553
0.0162436
0.0162318
0.0162199
0.0162081
0.0161963
0.0161845
0.0161726
0.0161607
0.0161489
0.016137
0.0161251
0.0161132
0.0161013
0.0160893
0.0160773
0.0160654
0.0160534
0.0160414
0.0160293
0.0160173
0.0160053
0.0159932
0.0159811
0.015969
0.0159569
0.0159447
0.0159325
0.0159203
0.0159081
0.0158958
0.0158835
0.0158712
0.0158588
0.0158463
0.015834
0.0158215
0.015809
0.0157964
0.0157839
0.0157713
0.0157587
0.015746
0.0157334
0.0157206
0.0157079
0.0156951
0.0156823
0.0156694
0.0156565
0.0156436
0.0156306
0.0156176
0.0156046
0.0155915
0.0155784
0.0155652
0.0155521
0.0155388
0.0155256
0.0155123
0.015499
0.0154856
0.0154723
0.0154589
0.0154454
0.015432
0.0154185
0.015405
0.0153914
0.0153778
0.0153642
0.0153505
0.0153368
0.0153231
0.0153093
0.0152955
0.0152817
0.0152678
0.0152538
0.0152399
0.0152259
0.0152119
0.0151978
0.0151837
0.0151696
0.0151554
0.0151412
0.0151269
0.0151126
0.0150982
0.0150838
0.0150693
0.0150549
0.0150403
0.0150257
0.0150111
0.0149965
0.0149818
0.014967
0.0149523
0.0149374
0.0149225
0.0149076
0.0148927
0.0148776
0.0148626
0.0148475
0.0148323
0.0148172
0.0148019
0.0147866
0.0147712
0.0147558
0.0147403
0.0147248
0.0147092
0.0146935
0.0146778
0.0146621
0.0146462
0.0146304
0.0146145
0.0145986
0.0145826
0.0145666
0.0145505
0.0145344
0.0145182
0.014502
0.0144857
0.0144694
0.0144529
0.0144365
0.01442
0.0144034
0.0143868
0.0143701
0.0143534
0.0143367
0.0143199
0.014303
0.0142862
0.0142692
0.0142522
0.0142352
0.0142181
0.0142009
0.0141837
0.0141664
0.0141491
0.0141317
0.0141142
0.0140967
0.0140791
0.0140614
0.0140438
0.014026
0.0140083
0.0139905
0.0139726
0.0139548
0.0139368
0.0139188
0.0139008
0.0138827
0.0138645
0.0138462
0.0138278
0.0138094
0.0137909
0.0137723
0.0137537
0.013735
0.0137162
0.0136973
0.0136783
0.0136594
0.0136403
0.0136212
0.013602
0.0135827
0.0135634
0.013544
0.0135245
0.013505
0.0134854
0.0134658
0.0134462
0.0134264
0.0134066
0.0133868
0.0133668
0.0133468
0.0133268
0.0133066
0.0132863
0.013266
0.0132456
0.0132251
0.0132045
0.0131839
0.0131631
0.0131423
0.0131215
0.0131006
0.0130796
0.0130586
0.0130375
0.0130164
0.0129953
0.0129741
0.0129529
0.0129316
0.0129102
0.0128887
0.0128672
0.0128455
0.0128237
0.0128018
0.0127799
0.0127578
0.0127357
0.0127136
0.0126914
0.0126691
0.0126468
0.0126244
0.0126019
0.0125794
0.0125569
0.0125343
0.0125116
0.0124888
0.012466
0.0124431
0.0124201
0.0123971
0.012374
0.0123508
0.0123276
0.0123043
0.0122809
0.0122575
0.0122339
0.0122102
0.0121864
0.0121624
0.0121384
0.0121143
0.01209
0.0120658
0.0120414
0.012017
0.0119925
0.0119679
0.0119433
0.0119186
0.0118938
0.011869
0.0118441
0.0118192
0.0117942
0.0117691
0.011744
0.0117188
0.0116935
0.0116681
0.0116426
0.011617
0.0115914
0.0115656
0.0115396
0.0115136
0.0114875
0.0114613
0.011435
0.0114086
0.0113821
0.0113556
0.011329
0.0113023
0.0112755
0.0112487
0.0112218
0.0111948
0.0111678
0.0111406
0.0111132
0.0110858
0.0110582
0.0110305
0.0110027
0.0109748
0.0109467
0.0109185
0.0108902
0.0108617
0.0108332
0.0108047
0.010776
0.0107473
0.0107186
0.0106897
0.0106608
0.0106318
0.0106026
0.0105734
0.0105441
0.0105148
0.0104854
0.0104559
0.0104263
0.0103967
0.010367
0.0103371
0.0103072
0.0102772
0.0102471
0.010217
0.0101867
0.0101563
0.0101259
0.0100953
0.0100647
0.010034
0.0100032
0.00997228
0.0099413
0.00991022
0.00987916
0.009848
0.00981685
0.00978562
0.00975432
0.00972295
0.00969148
0.00965996
0.00962832
0.00959657
0.00956473
0.00953277
0.00950073
0.00946857
0.00943636
0.00940404
0.0093716
0.00933908
0.00930642
0.00927366
0.00924077
0.00920772
0.00917458
0.00914131
0.00910793
0.00907446
0.00904087
0.00900723
0.00897351
0.0089397
0.00890589
0.00887199
0.00883803
0.00880398
0.0087698
0.00873552
0.00870114
0.00866664
0.00863207
0.00859739
0.0085626
0.00852778
0.00849287
0.00845788
0.0084228
0.00838759
0.00835225
0.00831682
0.00828125
0.00824555
0.00820976
0.00817387
0.0081379
0.00810198
0.00806603
0.00803006
0.00799409
0.00795803
0.00792186
0.0078856
0.00784921
0.00781269
0.00777609
0.00773938
0.00770255
0.00766565
0.00762866
0.00759157
0.00755436
0.00751717
0.00747991
0.00744258
0.0074052
0.00736774
0.00733018
0.00729252
0.00725477
0.00721689
0.00717888
0.00714077
0.00710258
0.00706427
0.00702584
0.00698728
0.00694858
0.00690979
0.00687095
0.00683213
0.00679341
0.00675471
0.00671602
0.00667735
0.00663878
0.00660021
0.00656167
0.00652313
0.00648464
0.00644613
0.0064076
0.00636903
0.00633043
0.00629184
0.0062532
0.0062145
0.00617573
0.00613689
0.00609795
0.00605892
0.00601984
0.00598072
0.0059416
0.00590253
0.00586344
0.00582435
0.00578529
0.00574629
0.00570739
0.00566858
0.0056298
0.00559105
0.00555233
0.00551361
0.00547488
0.00543618
0.00539749
0.00535885
0.00532025
0.00528174
0.00524337
0.00520516
0.00516712
0.00512922
0.00509144
0.00505377
0.0050162
0.0049787
0.00494125
0.00490383
0.00486649
0.00482931
0.00479233
0.00475562
0.0047192
0.00468308
0.00464728
0.00461179
0.00457666
0.0045419
0.00450749
0.0044734
0.00443959
0.00440605
0.00437279
0.00433982
0.0043072
0.00427498
0.00424322
0.00421189
0.00418102
0.00415062
0.0041207
0.00409125
0.00406228
0.00403384
0.00400594
0.00397858
0.00395176
0.00392548
0.00389978
0.00387472
0.00385031
0.00382659
0.00380362
0.0037814
0.00375998
0.00373931
0.00371943
0.00370039
0.00368219
0.00366483
0.00364836
0.00363281
0.00361821
0.00360458
0.00359194
0.00358032
0.00356975
0.00356026
0.00355188
0.00354462
0.00353854
0.00353364
0.00352994
0.00352743
0.00352613
)
;

boundaryField
{
    INLET
    {
        type            cyclic;
    }
    OUTLET
    {
        type            cyclic;
    }
    CENTER
    {
        type            symmetryPlane;
    }
    WALL
    {
        type            calculated;
        value           uniform 2e-10;
    }
    frontAndBackPlanes
    {
        type            empty;
    }
}


// ************************************************************************* //
