/*--------------------------------*- C++ -*----------------------------------*\
| =========                 |                                                 |
| \\      /  F ield         | OpenFOAM: The Open Source CFD Toolbox           |
|  \\    /   O peration     | Version:  v1806                                 |
|   \\  /    A nd           | Web:      www.OpenFOAM.com                      |
|    \\/     M anipulation  |                                                 |
\*---------------------------------------------------------------------------*/
FoamFile
{
    version     2.0;
    format      ascii;
    class       volScalarField;
    location    0;
    object      Kj_exp;
}
// * * * * * * * * * * * * * * * * * * * * * * * * * * * * * * * * * * * * * //

dimensions      [0 0 0 0 0 0 0];


internalField   nonuniform List<scalar>
1025
(
6476.9679
19452.994
32481.595
45562.773
58697.042
71884.09
85124.671
98418.291
111766.3
125168.48
138624.38
152134.43
165699.85
179319.95
192994.93
206725.22
220512.19
234355.54
248253.22
262208.13
276219.42
290286.29
304410.76
318591.36
332830.67
347130.25
361486.54
375902.47
390373
404903.1
419494.41
434140.37
448849.16
463620.72
478456.13
493347
508298.92
523311.52
538390.52
553530.03
568729.96
583992.99
599317.88
614704.52
630152.87
645665.73
661243.03
676883.12
692587.56
708356.45
724189.72
740085.65
756047.32
772074.7
788166.05
804324.53
820548.41
836835.98
853188.76
869610.14
886098.11
902650.62
919267.51
935948.62
952695.4
969509.86
986391.89
1003343.6
1020364.3
1037451.5
1054604.9
1071824.6
1089112.7
1106472.5
1123900.5
1141398.2
1158964.5
1176601.9
1194307.4
1212083.9
1229931.1
1247850.6
1265842.2
1283905.8
1302039.7
1320245.4
1338527.6
1356883
1375312.9
1393817.3
1412394.6
1431046
1449769.4
1468564.7
1487435.4
1506386.8
1525413.5
1544515.2
1563695
1582955.3
1602291.9
1621706.3
1641199.8
1660770.8
1680425.3
1700163.1
1719982.8
1739888.9
1759875
1779939.6
1800085.4
1820310.9
1840612.2
1860996.1
1881460.8
1902007.6
1922636.5
1943347.3
1964141.4
1985013
2005967.7
2027006.8
2048130.2
2069337.7
2090637
2112028.1
2133502.9
2155062.9
2176711
2198445.5
2220258
2242151.3
2264133.7
2286210.4
2308374.4
2330619.6
2352953.2
2375376.6
2397889.6
2420492.2
2443184
2465958.6
2488817.2
2511757.9
2534790.3
2557914.2
2581120.9
2604420.2
2627813.6
2651308.1
2674894.8
2698576.5
2722344
2746196.7
2770144
2794185.6
2818322.9
2842555.7
2866885.2
2891311.5
2915834.1
2940456.2
2965175.9
2989991.5
3014906
3039920.6
3065033.6
3090246.4
3115560.3
3140967.7
3166474.2
3192102.3
3217830.6
3243644.3
3269557.9
3295586.3
3321714.3
3347941.8
3374283.4
3400724.1
3427263.7
3453902
3480640
3507491.1
3534440.3
3561502.2
3588662.3
3615905.4
3643245.7
3670697.8
3698261.1
3725921
3753692.1
3781573.8
3809550.6
3837621.8
3865803.1
3894094.3
3922478.7
3950970.3
3979539.7
4008217.9
4037019.3
4065943.7
4094976.2
4124116.7
4153379.5
4182749.9
4212242.2
4241855.9
4271557.7
4301380.5
4331309.8
4361359.7
4391544.4
4421855.2
4452271.4
4482822
4513513
4544344.5
4575331.1
4606422.4
4637632.7
4668976.1
4700437.9
4732032.3
4763721.8
4795529.1
4827491.5
4859585.4
4891796.4
4924124.2
4956597.1
4989200.6
5021920.2
5054755.6
5087695.2
5120778.5
5154017.3
5187411.5
5220961.4
5254640
5288447.2
5322396.8
5356474.3
5390679.7
5425055.3
5459558.1
5494202.2
5528972.9
5563854.4
5598845.9
5633963.1
5669219.9
5704598.5
5740084.3
5775694.6
5811443.1
5847362
5883451.5
5919678.4
5956022.8
5992517.9
6029149.5
6065917.3
6102821
6139874.3
6177076.7
6214377.9
6251790.7
6289351.5
6327060.1
6364915.8
6402904.8
6441040.7
6479336.6
6517778.6
6556366.5
6595113.5
6634005.5
6673001.1
6712113
6751382.5
6790838.1
6830437.2
6870192.9
6910104.9
6950172.9
6990396.6
7030775.7
7071309.9
7112045.2
7152981.9
7194086.5
7235345.2
7276757.6
7318337
7360069.5
7401968.3
7444032.9
7486249.5
7528631.2
7571177.8
7613888.7
7656710.7
7699696.2
7742844.8
7786156.3
7829698.7
7873403.3
7917269.9
7961311.2
8005527
8049903.6
8094395
8139059.6
8183943.6
8229013.4
8274255.3
8319668.8
8365253.9
8411009.8
8456885.7
8502867
8548952.5
8595219.6
8641601.5
8688083.8
8734678.1
8781395.9
8828210
8875201.8
8922383.5
8969729.3
9017251.4
9064962.1
9112787.9
9160788.4
9208976.4
9257350.8
9305898.9
9354632.8
9403552.3
9452656.6
9501945.7
9551419
9601088.7
9650941.7
9700977.6
9751208.6
9801634.2
9852254.1
9903141.1
9954221.6
10005495
10056962
10108634
10160497
10212552
10264797
10317246
10369991
10422926
10476064
10529499
10583136
10636974
10691012
10745263
10799816
10854670
10909736
10964908
11020186
11075661
11131452
11187453
11243551
11299759
11356173
11412793
11469596
11526639
11583934
11641467
11699169
11757134
11815350
11873756
11932375
11991207
12050214
12109406
12168835
12228485
12288306
12348335
12408597
12469106
12529807
12590670
12651736
12713061
12774684
12836493
12898531
12960722
13023184
13085943
13148880
13212072
13275499
13339116
13402937
13467035
13531366
13595994
13660918
13726038
13791400
13856955
13922769
13988857
14055130
14121664
14188380
14255327
14322459
14389904
14457579
14525416
14593573
14661930
14730451
14799245
14868186
14937400
15006886
15076683
15146822
15217173
15287845
15358829
15430012
15501404
15573064
15645003
15717297
15789892
15862841
15936014
16009387
16083071
16156907
16231132
16305667
16380442
16455560
16530891
16606471
16682418
16758587
16835099
16911927
16989035
17066360
17143887
17221613
17299729
17378079
17456677
17535612
17614922
17694407
17774146
17854056
17934199
18014689
18095438
18176504
18257770
18339419
18421502
18503939
18586683
18669812
18753193
18836939
18921082
19005527
19090369
19175661
19261329
19347341
19433685
19520306
19607268
19694572
19782181
19870108
19958384
20047000
20135975
20225335
20315115
20405290
20495786
20586567
20677768
20769450
20861385
20953598
21046177
21139081
21232389
21325992
21419968
21514428
21609220
21704353
21799983
21896110
21992800
22089701
22186885
22284547
22382335
22480324
22578833
22677560
22776672
22876123
22975876
23075975
23176431
23277183
23378278
23479735
23581544
23683701
23786207
23889070
23992289
24095863
24199801
24304091
24408731
24513741
24619110
24724836
24830938
24937362
25044115
25151251
25258824
25366776
25474945
25583491
25692515
25801912
25911578
26021614
26132123
26242998
26354239
26465845
26577712
26690041
26802833
26915946
27029415
27143342
27257724
27372458
27487543
27602977
27718759
27835057
27951870
28069027
28186525
28304464
28422842
28541556
28660605
28780088
28900003
29020347
29141118
29262217
29383641
29505665
29628110
29750876
29874058
29997656
30121668
30246091
30370826
30495969
30621616
30747667
30874032
31000798
31128051
31255796
31383936
31512468
31641391
31770703
31900497
32030770
32161426
32292559
32424070
32555959
32688414
32821241
32954440
33088102
33222226
33356714
33491462
33626759
33762507
33898612
34035164
34172053
34309292
34446971
34585182
34723940
34863039
35002683
35142850
35283444
35424464
35565906
35707769
35850141
35992929
36136131
36279619
36423516
36567909
36712797
36858084
37003861
37150123
37296688
37443734
37591257
37739122
37887459
38036176
38185360
38335007
38485116
38635684
38786618
38937861
39089642
39241871
39394543
39547656
39701208
39855195
40009703
40164640
40320004
40475879
40632017
40788573
40945630
41103184
41261148
41419603
41578547
41737891
41897631
42057851
42218632
42379886
42541525
42703629
42866197
43029225
43192709
43356647
43521118
43686036
43851398
44017199
44183247
44349810
44516885
44684385
44852110
45020137
45188659
45357592
45526930
45696630
45866602
46036969
46207807
46379113
46550883
46723114
46895802
47069162
47242973
47417230
47591929
47767146
47942878
48119040
48295396
48471939
48648977
48826507
49004524
49182703
49361281
49540411
49720010
49900249
50080949
50262184
50443873
50625933
50808438
50991460
51174918
51359152
51543814
51728626
51913657
52099100
52285027
52471356
52658159
52845432
53033168
53221363
53409938
53598962
53788432
53978414
54168527
54358995
54549960
54741417
54933287
55125564
55318318
55511469
55705014
55899418
56094277
56289182
56484460
56680514
56877074
57074061
57271473
57469651
57668595
57868019
58067847
58268434
58469779
58671583
58873841
59076105
59278810
59482327
59686657
59891796
60097287
60303194
60509577
60716362
60923542
61131181
61339202
61547599
61756434
61965633
62175256
62385296
62595680
62806899
63018582
63230658
63443052
63655824
63869032
64082603
64296531
64510873
64725557
64940641
65156116
65371436
65586652
65801686
66017076
66232875
66448518
66664492
66880787
67097458
67314435
67531709
67749335
67967304
68185608
68404177
68623065
68842803
69062783
69283119
69503802
69724703
69945873
70167363
70389735
70612987
70837056
71061357
71286001
71510918
71736039
71961474
72187153
72413068
72639208
72865564
73092241
73319114
73546174
73773524
74001097
74229478
74458720
74688214
74917898
75148429
75379128
75609304
75839735
76070353
76301095
76532707
76764475
76996392
77228442
77460616
77692900
77925339
78157918
78391322
78624845
78858476
79092204
79326013
79559893
79793831
80027812
80261878
80495962
80729779
80963557
81197281
81431019
81665123
81898880
82132321
82366025
82599586
82832992
83066012
83298716
83531216
83763679
83996132
84228335
84460000
84691841
84924029
85156230
85388148
85619813
85851728
86083164
86314637
86546321
86777713
87008356
87239066
87469630
87699583
87928948
88157644
88385914
88613428
88840100
89066496
89292747
89518944
89744639
89970031
90195100
90419208
90642621
90865987
91089219
91312413
91535327
91757595
91978965
92199915
92420190
92640204
92859103
93077896
93296527
93514091
93731124
93946951
94161791
94376189
94590090
94803182
95015860
95227880
95439574
95650922
95860886
96069964
96277563
96483953
96689675
96894810
97098819
97301948
97504416
97706232
97906668
98106257
98304118
98501107
98696761
98890438
99083006
99273994
99464285
99652657
99839017
1.0002368e+08
1.0020649e+08
1.0038842e+08
1.0056871e+08
1.007478e+08
1.0092502e+08
1.0110017e+08
1.0127341e+08
1.0144516e+08
1.0161552e+08
1.0178483e+08
1.0195206e+08
1.0211781e+08
1.0228178e+08
1.0244324e+08
1.026033e+08
1.0276076e+08
1.029154e+08
1.0306838e+08
1.0321879e+08
1.0336677e+08
1.0351315e+08
1.0365806e+08
1.0379987e+08
1.0393962e+08
1.0407708e+08
1.0421272e+08
1.0434509e+08
1.0447557e+08
1.0460396e+08
1.0472928e+08
1.048524e+08
1.0497254e+08
1.0509057e+08
1.0520552e+08
1.0531827e+08
1.054282e+08
1.0553488e+08
1.0563866e+08
1.0573985e+08
1.058382e+08
1.0593288e+08
1.0602423e+08
1.0611277e+08
1.0619746e+08
1.0627802e+08
1.063554e+08
1.0642934e+08
1.0649995e+08
1.0656618e+08
1.0662978e+08
1.0668905e+08
1.0674475e+08
1.06797e+08
1.0684491e+08
1.0688946e+08
1.0692972e+08
1.0696669e+08
1.0699837e+08
1.0702596e+08
1.0704916e+08
1.0706789e+08
1.0708207e+08
1.0709161e+08
1.0709643e+08
)
;

boundaryField
{
INLET
{
    type            cyclic;
}
OUTLET
{
    type            cyclic;
}
WALL
{
    type            fixedValue;
    value           uniform 0;
}
CENTER
{
    type            symmetryPlane;
}
frontAndBackPlanes
{
    type            empty;
}
}


// ************************************************************************* //

