/*--------------------------------*- C++ -*----------------------------------*\
| =========                 |                                                 |
| \\      /  F ield         | OpenFOAM: The Open Source CFD Toolbox           |
|  \\    /   O peration     | Version:  v1806                                 |
|   \\  /    A nd           | Web:      www.OpenFOAM.com                      |
|    \\/     M anipulation  |                                                 |
\*---------------------------------------------------------------------------*/
FoamFile
{
    version     2.0;
    format      ascii;
    class       volScalarField;
    location    0;
    object      Kj_Full_exp;
}
// * * * * * * * * * * * * * * * * * * * * * * * * * * * * * * * * * * * * * //

dimensions      [0 0 0 0 0 0 0];


internalField   nonuniform List<scalar>
1025
(
0.04716657
0.14166057
0.23653744
0.33179718
0.42744355
0.52347426
0.6198948
0.71670159
0.81390446
0.91150176
1.0094903
1.1078732
1.2066593
1.3058436
1.4054275
1.5054142
1.6058136
1.7066237
1.8078294
1.9094518
2.0114848
2.1139226
2.2167798
2.3200457
2.4237392
2.5278716
2.632417
2.7373966
2.8427739
2.948585
3.0548418
3.1614966
3.268609
3.3761784
3.4842128
3.5926511
3.7015339
3.8108587
3.920667
4.0309159
4.1416048
4.2527532
4.3643521
4.4764007
4.5888987
4.7018664
4.8153034
4.9291976
5.0435605
5.1583927
5.2736937
5.389451
5.5056871
5.6224017
5.7395821
5.8572513
5.9753969
6.0940062
6.2130904
6.3326741
6.4527429
6.5732815
6.694289
6.8157642
6.9377176
7.0601638
7.1831021
7.306548
7.4304959
7.554928
7.6798431
7.80524
7.9311357
8.0575527
8.184467
8.311889
8.4398102
8.5682492
8.6971846
8.8266364
8.9566035
9.0870967
9.218115
9.3496578
9.4817124
9.6142898
9.7474246
9.881092
10.015303
10.150055
10.285338
10.421162
10.55751
10.69438
10.831801
10.969809
11.108365
11.247467
11.387138
11.527396
11.668209
11.809588
11.951544
12.094064
12.237191
12.380926
12.525257
12.670217
12.81576
12.961874
13.10858
13.255866
13.403705
13.552144
13.701172
13.850798
14.001022
14.151842
14.303269
14.45526
14.607856
14.761067
14.914892
15.069329
15.224435
15.380209
15.536593
15.693597
15.851243
16.009518
16.168361
16.327792
16.487872
16.64864
16.810042
16.972036
17.134674
17.297965
17.46191
17.626506
17.791752
17.957601
18.124062
18.291121
18.458848
18.62724
18.796236
18.965907
19.136262
19.307354
19.479117
19.651572
19.824651
19.998351
20.17274
20.347816
20.523588
20.700056
20.877229
21.055106
21.233685
21.412987
21.593001
21.773714
21.955146
22.137307
22.320185
22.503789
22.688131
22.873152
23.058896
23.245524
23.432883
23.620863
23.809572
23.999116
24.189385
24.380379
24.572204
24.76475
24.958017
25.152002
25.346713
25.542249
25.738498
25.935568
26.133353
26.331743
26.530841
26.730752
26.931474
27.132899
27.335133
27.538174
27.741906
27.946326
28.151548
28.35757
28.564271
28.771753
28.9798
29.188641
29.398379
29.609011
29.820432
30.032639
30.245736
30.459617
30.674386
30.890039
31.106333
31.323509
31.54146
31.76029
31.980101
32.20083
32.422327
32.644802
32.8683
33.092822
33.318472
33.544885
33.772165
34.000413
34.229525
34.459601
34.690371
34.921998
35.154754
35.388468
35.623035
35.858453
36.094927
36.332352
36.570623
36.809737
37.049609
37.290529
37.53258
37.775763
38.02008
38.265335
38.511525
38.758753
39.006912
39.256003
39.506332
39.757589
40.009874
40.263081
40.517096
40.77191
41.027641
41.284388
41.542022
41.800437
42.059758
42.320086
42.581654
42.844465
43.108277
43.372944
43.638708
43.905467
44.173217
44.441958
44.711787
44.982702
45.254337
45.526785
45.80031
46.074911
46.350584
46.627228
46.904941
47.183819
47.463762
47.744766
48.026929
48.310149
48.594123
48.878943
49.164912
49.452235
49.740603
50.030112
50.32076
50.612543
50.90546
51.199508
51.494686
51.791329
52.089438
52.38877
52.689224
52.990797
53.293587
53.597492
53.902607
54.208929
54.516359
54.824991
55.134824
55.445853
55.757691
56.070721
56.384937
56.70034
57.017424
57.335691
57.655135
57.975853
58.297842
58.621001
58.944996
59.270253
59.597107
59.925314
60.254774
60.585485
60.917445
61.250648
61.584725
61.91957
62.255174
62.592101
62.929863
63.268356
63.607665
63.947873
64.288783
64.630987
64.974573
65.319355
65.66542
66.012859
66.361136
66.710685
67.0616
67.413871
67.767408
68.122299
68.47854
68.836127
69.195061
69.555335
69.917039
70.280079
70.644451
71.010242
71.377451
71.746076
72.116645
72.488623
72.86201
73.236798
73.613082
73.990761
74.369834
74.750298
75.13224
75.516342
75.901824
76.288781
76.677909
77.068503
77.460561
77.85408
78.249146
78.646407
79.045866
79.446867
79.848647
80.251189
80.655168
81.061453
81.469257
81.877779
82.287093
82.697913
83.110229
83.523881
83.939281
84.356511
84.775483
85.195679
85.617792
86.041733
86.467055
86.893932
87.322359
87.752057
88.183107
88.615876
89.050265
89.48589
89.923031
90.361874
90.802515
91.244547
91.687762
92.132463
92.579038
93.027793
93.477901
93.929668
94.382561
94.837421
95.294445
95.752763
96.212936
96.674829
97.138101
97.602856
98.069628
98.5381
99.008732
99.481524
99.955738
100.43172
100.90911
101.38838
101.86964
102.35225
102.83677
103.3226
103.81013
104.299
104.79015
105.28297
105.77697
106.2733
106.7711
107.27007
107.77105
108.27309
108.77712
109.28313
109.79141
110.30218
110.81448
111.32913
111.84605
112.36442
112.88431
113.40615
113.93003
114.45649
114.98513
115.51636
116.04923
116.58355
117.12013
117.65782
118.19834
118.74111
119.28564
119.83266
120.38124
120.93163
121.48469
122.03937
122.59654
123.15602
123.71754
124.28063
124.8452
125.41121
125.98007
126.55063
127.123
127.69782
128.27537
128.8542
129.43487
130.01679
130.60041
131.18655
131.77458
132.36492
132.95671
133.5513
134.14904
134.74937
135.35192
135.95729
136.56448
137.17434
137.78708
138.40203
139.01987
139.64098
140.26483
140.89119
141.51997
142.15075
142.78403
143.41979
144.05778
144.69808
145.34093
145.98624
146.63418
147.28491
147.93871
148.59538
149.2544
149.91548
150.57962
151.24727
151.91676
152.58827
153.26245
153.939
154.61849
155.30012
155.98447
156.67235
157.36264
158.05542
158.75182
159.45183
160.15595
160.8616
161.56932
162.28051
162.99262
163.70619
164.42356
165.14251
165.86426
166.58848
167.3149
168.04384
168.77538
169.50908
170.24527
170.98411
171.7255
172.46943
173.2159
173.96497
174.71663
175.47087
176.22777
176.98723
177.74924
178.51394
179.28126
180.05118
180.82383
181.59884
182.37623
183.15642
183.93978
184.72591
185.51362
186.30407
187.09801
187.89466
188.69327
189.49458
190.29932
191.10674
191.91682
192.72955
193.54419
194.3622
195.18357
196.00727
196.83358
197.66322
198.49617
199.33169
200.16976
201.01037
201.85352
202.70042
203.55108
204.40424
205.25989
206.11874
206.98079
207.84529
208.71224
209.58233
210.45557
211.33194
212.21143
213.09329
213.97753
214.86613
215.7578
216.6518
217.54884
218.44891
219.35198
220.25806
221.1664
222.07772
222.9927
223.91063
224.83085
225.75399
226.68066
227.61093
228.54407
229.48007
230.41891
231.36058
232.30577
233.25444
234.20591
235.16084
236.11854
237.07898
238.04354
239.01081
239.98079
240.95415
241.93086
242.91024
243.89149
244.87675
245.8653
246.85644
247.85084
248.8477
249.8471
250.8497
251.85618
252.86664
253.87959
254.89651
255.91723
256.94107
257.968
258.99801
260.03108
261.06787
262.10768
263.1505
264.19541
265.24329
266.2948
267.34989
268.40791
269.46948
270.53459
271.60191
272.67272
273.74702
274.8238
275.90402
276.98701
278.07339
279.16316
280.25628
281.35274
282.45187
283.55326
284.65856
285.76712
286.87891
287.99391
289.1121
290.23347
291.35862
292.4869
293.6183
294.75341
295.89044
297.03051
298.17423
299.32157
300.47189
301.6258
302.78326
303.94363
305.10689
306.27365
307.44449
308.61877
309.79585
310.97633
312.16018
313.34738
314.53791
315.73173
316.92945
318.13042
319.33461
320.54201
321.7512
322.96414
324.18082
325.40059
326.622
327.8456
329.07281
330.30301
331.53617
332.77196
334.00973
335.25037
336.49445
337.74193
338.9928
340.24702
341.50457
342.76701
344.03273
345.30171
346.5739
347.84987
349.12958
350.41243
351.69669
352.98231
354.27154
355.56435
356.8607
358.15823
359.45868
360.76314
362.07102
363.38355
364.69944
366.01923
367.34232
368.66812
369.99716
371.32996
372.66594
374.00757
375.35231
376.69815
378.04559
379.39602
380.74998
382.10686
383.4672
384.83095
386.19808
387.56856
388.9418
390.31831
391.69807
393.08156
394.466
395.85303
397.24367
398.63789
400.03513
401.43533
402.839
404.24557
405.655
407.07069
408.48969
409.90903
411.33108
412.75879
414.19017
415.62468
417.06227
418.50544
419.95419
421.40643
422.86162
424.32234
425.78857
427.25815
428.73103
430.20396
431.68009
433.16215
434.65012
436.14399
437.64041
439.13986
440.64279
442.14864
443.65737
445.16943
446.68428
448.20187
449.72265
451.24608
452.77259
454.30215
455.8342
457.37234
458.91386
460.45824
462.00494
463.55438
465.107
466.66227
468.22014
469.78102
471.34439
472.91068
474.47981
476.04782
477.61506
479.18098
480.74949
482.32098
483.89134
485.46411
487.03921
488.61705
490.19712
491.77935
493.36414
494.95144
496.54117
498.13284
499.72682
501.327
502.92894
504.53347
506.14052
507.74917
509.35977
510.97271
512.59207
514.21783
515.84954
517.48295
519.11885
520.75674
522.39612
524.03778
525.68122
527.32638
528.97317
530.62155
532.27225
533.92438
535.57788
537.23349
538.89072
540.55384
542.22322
543.89444
545.56705
547.24582
548.92582
550.60201
552.28005
553.95946
555.63977
557.32641
559.01419
560.70305
562.39289
564.08362
565.77517
567.46783
569.16152
570.86122
572.56178
574.26313
575.96518
577.66782
579.37098
581.07456
582.77846
584.48298
586.18762
587.89033
589.59274
591.29477
592.99689
594.70168
596.40395
598.10392
599.80579
601.50663
603.20634
604.90324
606.59784
608.29094
609.98378
611.67656
613.36751
615.05454
616.74285
618.43369
620.12462
621.8135
623.50052
625.18937
626.87474
628.56037
630.24754
631.93259
633.61217
635.29225
636.97126
638.64582
640.3161
641.98151
643.64382
645.30063
646.95129
648.59995
650.24756
651.89477
653.53833
655.17968
656.81868
658.45067
660.07761
661.70421
663.32983
664.95517
666.57847
668.19707
669.80913
671.41814
673.02223
674.62441
676.21848
677.81177
679.40388
680.98823
682.56871
684.1404
685.70491
687.2662
688.82387
690.37565
691.92441
693.46838
695.00998
696.54905
698.07806
699.6006
701.11238
702.61535
704.11347
705.6073
707.09293
708.57215
710.04657
711.51623
712.97585
714.4293
715.87016
717.30467
718.72946
720.13986
721.54218
722.93299
724.31872
725.69049
727.0476
728.39237
729.72361
731.04848
732.36136
733.66554
734.95608
736.23153
737.49311
738.74383
739.98444
741.21738
742.43517
743.64226
744.83632
746.01207
747.17768
748.32434
749.45046
750.56449
751.65978
752.73737
753.80336
754.8586
755.89134
756.90902
757.91003
758.89779
759.86169
760.81193
761.74689
762.65946
763.55604
764.4309
765.29042
766.12755
766.94861
767.74913
768.52604
769.28177
770.01864
770.73483
771.42435
772.08958
772.73435
773.35105
773.93773
774.50123
775.03961
775.55387
776.03615
776.49928
776.93091
777.3365
777.71701
778.06591
778.39031
778.68354
778.95273
779.18341
779.38433
779.55328
779.6897
779.79297
779.86246
779.89753
)
;

boundaryField
{
INLET
{
    type            cyclic;
}
OUTLET
{
    type            cyclic;
}
WALL
{
    type            fixedValue;
    value           uniform 0;
}
CENTER
{
    type            symmetryPlane;
}
frontAndBackPlanes
{
    type            empty;
}
}


// ************************************************************************* //

