/*--------------------------------*- C++ -*----------------------------------*\
| =========                 |                                                 |
| \\      /  F ield         | OpenFOAM: The Open Source CFD Toolbox           |
|  \\    /   O peration     | Version:  v1806                                 |
|   \\  /    A nd           | Web:      www.OpenFOAM.com                      |
|    \\/     M anipulation  |                                                 |
\*---------------------------------------------------------------------------*/
FoamFile
{
    version     2.0;
    format      ascii;
    class       volScalarField;
    location    0;
    object      Kj_Full_imp1;
}
// * * * * * * * * * * * * * * * * * * * * * * * * * * * * * * * * * * * * * //

dimensions      [0 0 0 0 0 0 0];


internalField   nonuniform List<scalar>
1025
(
0.049086008
0.14743008
0.24617867
0.3453324
0.44489026
0.54485423
0.64522108
0.74599295
0.84716989
0.94875241
1.0507383
1.1531171
1.2558932
1.3590589
1.4626158
1.5665629
1.6708724
1.7755575
1.8805987
1.985982
2.0917023
2.1977788
2.3041935
2.4109447
2.5180006
2.6253653
2.7330206
2.8409514
2.9491648
3.0576219
3.1663155
3.2752243
3.384319
3.4936454
3.60318
3.712901
3.8227142
3.9326769
4.0427547
4.1529812
4.263299
4.3736311
4.4839819
4.5943913
4.7048122
4.8152584
4.9255779
5.0357803
5.1458965
5.2560143
5.3660959
5.4759827
5.5856602
5.6951239
5.8044191
5.9136201
6.0225727
6.1311692
6.2393957
6.3473979
6.4551463
6.5627376
6.6699864
6.7766983
6.8829536
6.9889341
7.0946568
7.2000965
7.3050182
7.4091156
7.5125784
7.6156821
7.7184815
7.8209427
7.922778
8.0236917
8.1238326
8.2236154
8.3230358
8.422152
8.5206938
8.6181899
8.7146129
8.8104801
8.9060471
9.001272
9.0960778
9.1899271
9.2823645
9.3739746
9.4652215
9.5561436
9.6467996
9.7367459
9.8253433
9.9126621
9.9994286
10.085849
10.172046
10.258015
10.342909
10.425995
10.508071
10.58985
10.67131
10.752563
10.833267
10.912575
10.990231
11.067079
11.143667
11.220074
11.296203
11.371513
11.445113
11.517285
11.588954
11.660511
11.731835
11.802988
11.873239
11.941679
12.008976
12.075935
12.14269
12.209358
12.275782
12.341096
12.404405
12.466713
12.528867
12.590915
12.652947
12.714711
12.775238
12.834036
12.891963
12.949862
13.007644
13.065305
13.12255
13.178416
13.232753
13.286538
13.340292
13.394064
13.447815
13.501064
13.552804
13.603204
13.653182
13.703157
13.753257
13.803346
13.85266
13.900453
13.947128
13.993562
14.040008
14.086459
14.132918
14.178525
14.222448
14.265454
14.308383
14.351226
14.394093
14.436934
14.478953
14.519462
14.55927
14.599141
14.639049
14.678969
14.718843
14.757825
14.795546
14.832756
14.87003
14.907448
14.944901
14.982055
15.018325
15.053588
15.088532
15.123539
15.158603
15.193706
15.228261
15.261733
15.29446
15.327055
15.359709
15.392421
15.425182
15.457369
15.488495
15.519088
15.549743
15.580465
15.611229
15.641769
15.671618
15.700597
15.729258
15.757968
15.786652
15.815396
15.843847
15.871471
15.898472
15.925381
15.952339
15.979268
16.006236
16.032723
16.058344
16.083605
16.108924
16.13439
16.15993
16.185194
16.209747
16.233726
16.257561
16.281461
16.305413
16.329411
16.352978
16.37581
16.398299
16.420841
16.443533
16.466283
16.488872
16.510922
16.532501
16.553989
16.575532
16.597132
16.61866
16.639843
16.660449
16.680828
16.701264
16.721757
16.742308
16.762728
16.782709
16.80243
16.822141
16.841912
16.861806
16.88169
16.901265
16.92051
16.939646
16.958838
16.978091
16.997339
17.016368
17.034966
17.053409
17.071902
17.090452
17.109051
17.127444
17.14539
17.163135
17.18087
17.198669
17.216521
17.234147
17.251316
17.26828
17.285337
17.302446
17.319549
17.336538
17.353181
17.369552
17.385874
17.40219
17.418557
17.434881
17.450898
17.466659
17.482427
17.498244
17.51411
17.529889
17.545328
17.560589
17.575865
17.591189
17.606621
17.621955
17.637008
17.651922
17.666866
17.681853
17.696892
17.711759
17.726358
17.740906
17.755494
17.770127
17.784848
17.79944
17.813855
17.828197
17.84259
17.857089
17.871634
17.886084
17.900353
17.914577
17.928862
17.943203
17.957487
17.971578
17.985548
17.999594
18.013681
18.027804
18.041839
18.055729
18.06955
18.083425
18.09735
18.111258
18.125031
18.138673
18.152236
18.165791
18.1794
18.193
18.206418
18.219772
18.233225
18.246714
18.260144
18.273412
18.286563
18.299756
18.31299
18.326214
18.339315
18.352259
18.365155
18.378099
18.39109
18.404062
18.416914
18.429677
18.442451
18.455274
18.468108
18.480858
18.493498
18.506181
18.518962
18.531775
18.544539
18.557179
18.569775
18.582359
18.594933
18.607481
18.619854
18.632114
18.644402
18.656731
18.669052
18.68128
18.693497
18.705726
18.718
18.730334
18.742579
18.754752
18.766877
18.778988
18.791106
18.803151
18.815125
18.827107
18.839186
18.851322
18.863391
18.875389
18.887384
18.899425
18.911478
18.92346
18.935371
18.947289
18.959252
18.971213
18.983103
18.994942
19.006848
19.018791
19.030726
19.042591
19.054404
19.066234
19.078109
19.089967
19.101741
19.113539
19.125368
19.137229
19.149119
19.16093
19.172718
19.184548
19.196394
19.208189
19.219924
19.231666
19.243449
19.255224
19.266936
19.278609
19.290305
19.30209
19.313909
19.325659
19.337331
19.349033
19.360751
19.37243
19.384057
19.395693
19.407364
19.419023
19.430613
19.44218
19.453843
19.465521
19.47716
19.488743
19.500332
19.511965
19.523637
19.53524
19.546827
19.55845
19.570085
19.581616
19.593103
19.604605
19.61608
19.627529
19.638919
19.65036
19.661896
19.673435
19.684983
19.696496
19.70803
19.719585
19.731046
19.742403
19.753767
19.765161
19.776534
19.787849
19.799162
19.810514
19.821854
19.833136
19.844402
19.855698
19.866996
19.87825
19.889479
19.900728
19.911984
19.9232
19.934387
19.94559
19.956747
19.967871
19.978956
19.990055
20.001171
20.012253
20.0233
20.034358
20.045436
20.056489
20.067499
20.078511
20.089604
20.100739
20.111834
20.122869
20.133864
20.144833
20.155763
20.166705
20.177667
20.188594
20.199421
20.210263
20.221183
20.232068
20.242858
20.2536
20.264353
20.275067
20.285753
20.296457
20.307168
20.3179
20.328611
20.33935
20.350088
20.360706
20.371249
20.381761
20.392258
20.402712
20.413168
20.423575
20.433889
20.44417
20.45447
20.46478
20.475048
20.485292
20.495559
20.505822
20.516105
20.526384
20.536682
20.546956
20.557198
20.567448
20.577774
20.588128
20.598462
20.608814
20.619156
20.62946
20.639766
20.650077
20.66036
20.67063
20.68091
20.691181
20.701411
20.711642
20.72189
20.732101
20.742288
20.752502
20.762714
20.772876
20.783035
20.793146
20.80316
20.813159
20.82317
20.833087
20.842982
20.852893
20.862799
20.872666
20.882531
20.892416
20.902275
20.912177
20.922157
20.932131
20.94208
20.952032
20.961988
20.971913
20.981834
20.991766
21.001672
21.011485
21.021309
21.03113
21.040928
21.050801
21.060739
21.070706
21.080681
21.090661
21.100605
21.110476
21.120282
21.13
21.139639
21.149202
21.158745
21.168282
21.177821
21.187345
21.196842
21.206413
21.216058
21.225675
21.235292
21.244907
21.254485
21.264068
21.273654
21.283207
21.292694
21.302108
21.311418
21.320739
21.33006
21.339278
21.348494
21.357716
21.36691
21.376097
21.38529
21.394456
21.403546
21.412566
21.421488
21.430404
21.439315
21.448207
21.457102
21.46599
21.474849
21.483637
21.492349
21.50104
21.509729
21.518413
21.527078
21.535733
21.544381
21.553014
21.561638
21.570252
21.57886
21.587461
21.596045
21.604627
21.6132
21.621751
21.630297
21.63884
21.647365
21.65596
21.664545
21.673115
21.681681
21.690158
21.698548
21.706934
21.715301
21.723666
21.73203
21.740373
21.748711
21.757043
21.765367
21.773682
21.781982
21.790279
21.798568
21.806837
21.815107
21.82337
21.831545
21.83972
21.847878
21.856024
21.864161
21.87229
21.880417
21.888609
21.896874
21.905133
21.913374
21.92161
21.929839
21.938062
21.946284
21.954486
21.962685
21.970879
21.979064
21.987242
21.995408
22.003571
22.011729
22.019881
22.028026
22.036156
22.044279
22.052402
22.060437
22.06838
22.076309
22.084231
22.092142
22.100045
22.10794
22.115908
22.123872
22.131825
22.139767
22.147617
22.155466
22.16331
22.171143
22.178971
22.186703
22.194427
22.202233
22.210033
22.217741
22.22544
22.233129
22.240807
22.248484
22.256155
22.263814
22.271376
22.27893
22.286566
22.294189
22.301806
22.309414
22.316927
22.324433
22.331927
22.339327
22.346717
22.354097
22.361465
22.368824
22.376176
22.383518
22.390852
22.398177
22.405495
22.412804
22.420102
22.427394
22.434678
22.442045
22.449406
22.45676
22.464106
22.471441
22.478773
22.4861
22.493415
22.500721
22.508022
22.515318
22.522609
22.529795
22.536973
22.544238
22.551592
22.558941
22.566184
22.573418
22.580748
22.588172
22.595584
22.602988
22.610391
22.617791
22.625181
22.632559
22.639935
22.647308
22.654672
22.66203
22.669382
22.676728
22.684071
22.691408
22.698733
22.706052
22.713368
22.720682
22.727988
22.735288
22.74258
22.749863
22.757248
22.764738
22.77233
22.779912
22.787489
22.79506
22.802519
22.809971
22.817418
22.824747
22.832066
22.83938
22.846581
22.853664
22.860738
22.867805
22.874865
22.881807
22.888628
22.895439
22.902354
22.909265
22.916167
22.923058
22.929948
22.936843
22.943829
22.950779
22.957744
22.964725
22.971696
22.978656
22.985607
22.992453
22.999194
23.0059
23.012569
23.01925
23.025825
23.032388
23.039062
23.0457
23.052202
23.058619
23.064898
23.07114
23.077395
23.083659
23.089911
23.096022
23.10212
23.108228
23.114345
23.120448
23.126538
23.132616
23.13868
23.144731
23.15079
23.156837
23.162848
23.168868
23.174897
23.180912
23.186914
23.192903
23.198878
23.204721
23.210431
23.216106
23.221766
23.227432
23.233062
23.238677
23.244443
23.25034
23.256368
23.262384
23.268386
23.274374
23.280498
23.286758
23.293179
23.299765
23.306468
23.313137
23.319819
23.326516
23.333202
23.339879
23.346545
23.353359
23.360165
23.366801
23.373289
23.37979
23.386256
23.392689
23.399134
23.405425
23.411703
23.41797
23.424226
23.43047
23.436703
23.442946
23.449177
23.455373
23.461581
23.467598
23.473401
23.47921
23.485006
23.490766
23.496533
23.50212
23.507691
23.513246
23.518766
23.524441
23.530314
23.536194
23.54204
23.547852
23.553649
23.559433
23.565203
23.570938
23.576638
23.582323
23.587974
23.59359
23.59919
23.604775
23.610345
23.61588
23.621379
23.627077
23.632978
23.638845
23.644679
23.650723
23.656734
23.662714
23.668685
23.674645
23.680803
23.686909
23.692985
23.699053
23.705114
23.711216
23.717361
23.723454
23.729542
23.735747
23.741949
23.748101
23.754301
23.760525
23.766646
23.772845
23.778891
23.784833
23.790828
23.796693
23.802614
23.808619
23.814521
23.82032
23.826067
23.831789
23.837518
23.843087
23.848608
23.853995
23.859247
23.864364
23.869373
23.874243
23.879187
23.884028
23.888939
23.89389
23.898733
23.903381
23.907842
23.912231
23.916694
23.921053
23.925286
23.929605
23.933758
23.937689
23.941677
23.945561
23.949308
23.95305
23.95661
23.960176
23.963773
23.967381
23.970795
23.97406
23.977338
23.980478
23.983646
23.986664
23.989593
23.992396
23.994975
23.997625
24.000198
24.002669
24.005141
24.007389
24.009526
24.011514
24.013559
24.015429
24.01717
24.018893
24.02036
24.021579
24.022521
24.023174
24.023557
24.023961
24.024079
)
;

boundaryField
{
INLET
{
    type            cyclic;
}
OUTLET
{
    type            cyclic;
}
WALL
{
    type            fixedValue;
    value           uniform 0;
}
CENTER
{
    type            symmetryPlane;
}
frontAndBackPlanes
{
    type            empty;
}
}


// ************************************************************************* //

