/*--------------------------------*- C++ -*----------------------------------*\
| =========                 |                                                 |
| \\      /  F ield         | OpenFOAM: The Open Source CFD Toolbox           |
|  \\    /   O peration     | Version:  v1806                                 |
|   \\  /    A nd           | Web:      www.OpenFOAM.com                      |
|    \\/     M anipulation  |                                                 |
\*---------------------------------------------------------------------------*/
FoamFile
{
    version     2.0;
    format      ascii;
    class       volScalarField;
    location    0;
    object      Kj_imp;
}
// * * * * * * * * * * * * * * * * * * * * * * * * * * * * * * * * * * * * * //

dimensions      [0 0 0 0 0 0 0];


internalField   nonuniform List<scalar>
1025
(
6740.5474
20245.269
33805.539
47421.444
61092.845
74820.012
88602.505
102440.61
116334.35
130283.78
144288.59
158347.38
172460.7
186627.54
200848.1
215122.23
229446.12
243821.61
258245.98
272717.34
287234.98
301801.52
316414.51
331073.72
345774.75
360518.19
375301.55
390122.73
404982.72
419876.17
434802.11
449757.59
464738.6
479751.43
494792.84
509859.86
524939.54
540039.74
555155.75
570292.19
585441.15
600592.09
615745.58
630907.13
646070.26
661236.86
676386.05
691519.18
706640.46
721761.96
736878.5
751968.28
767029.31
782061
797069.55
812065.15
827026.64
841939.25
856801.04
871632.02
886428.16
901202.72
915930.24
930584.05
945175.15
959728.51
974246.47
988725.58
1003133.6
1017428.3
1031636
1045794.3
1059910.8
1073980.9
1087965
1101822.6
1115574.1
1129276.4
1142928.9
1156539.7
1170071.5
1183459.8
1196700.7
1209865.3
1222988.7
1236065.1
1249083.9
1261971.4
1274665
1287245
1299775.2
1312260.7
1324709.7
1337061.2
1349227.5
1361218.2
1373133.1
1385000.4
1396837.2
1408642.5
1420300.3
1431709.7
1442980.5
1454210.5
1465396.6
1476554.3
1487636.7
1498527.4
1509191.2
1519744
1530261.2
1540753.5
1551207.6
1561549.3
1571656.2
1581566.8
1591408.6
1601234.8
1611029.2
1620800
1630446.9
1639845.1
1649086.5
1658281.4
1667448.3
1676603.2
1685724.6
1694693.6
1703387.2
1711943.4
1720478.5
1728999
1737517.3
1745998.8
1754310.4
1762384.7
1770339.3
1778290
1786224.7
1794142.8
1802003.8
1809675.3
1817137
1824522.7
1831904.3
1839288.3
1846669.5
1853981.7
1861086.7
1868007.6
1874870.7
1881733.4
1888613.2
1895491.4
1902263.2
1908826.3
1915235.8
1921612.1
1927990.1
1934368.8
1940748.6
1947011.5
1953043
1958948.7
1964843.8
1970727
1976613.5
1982496.4
1988266.6
1993829.3
1999295.8
2004771
2010251.1
2015733.1
2021208.5
2026561.5
2031741.6
2036851.2
2041969.7
2047108
2052251.1
2057353.1
2062333.7
2067176.2
2071974.7
2076781.8
2081596.8
2086417.3
2091162.4
2095758.8
2100253
2104728.9
2109213
2113705.1
2118203.9
2122623.8
2126898
2131099.1
2135308.7
2139527.5
2143752
2147945.8
2152044.7
2156024.1
2159959.9
2163902.4
2167841.3
2171788.5
2175695.3
2179488.8
2183196.5
2186891.8
2190593.6
2194291.6
2197994.8
2201632.1
2205150.4
2208619.3
2212096.1
2215593.1
2219100.2
2222569.5
2225941.2
2229234
2232507.1
2235789.1
2239078.2
2242373.5
2245609.8
2248745.1
2251833.3
2254928.9
2258045
2261169
2264271
2267298.9
2270262.1
2273212.9
2276171.3
2279137.4
2282093.6
2285002.5
2287832.2
2290630.6
2293436.9
2296251
2299073.1
2301877.2
2304621
2307329.1
2310035.9
2312750.8
2315482.7
2318213.1
2320901.3
2323544.1
2326171.8
2328807.3
2331451
2334094.2
2336707.3
2339261.3
2341793.9
2344333.4
2346880.6
2349434.7
2351960.4
2354424.8
2356861.6
2359297
2361741.2
2364192.6
2366613
2368970.6
2371300.1
2373642.4
2375991.9
2378340.5
2380673.5
2382958.9
2385206.9
2387448.3
2389688.8
2391936.4
2394178.1
2396377.5
2398541.8
2400707
2402879.1
2405057.8
2407224.6
2409344.8
2411440.3
2413538
2415642.4
2417761.6
2419867.2
2421934.4
2423982.3
2426034.5
2428092.6
2430157.6
2432199.3
2434204
2436201.7
2438204.9
2440214.4
2442235.9
2444239.7
2446219.2
2448188.6
2450165.1
2452156.2
2454153.4
2456137.8
2458097.2
2460050.4
2462012
2463981.4
2465942.9
2467877.8
2469796.3
2471725
2473659.5
2475598.9
2477526.2
2479433.6
2481331.5
2483236.8
2485149.1
2487058.9
2488950.3
2490823.5
2492686.1
2494547.5
2496416.3
2498283.8
2500126.4
2501960.1
2503807.5
2505659.9
2507504.1
2509326
2511132
2512943.6
2514761
2516576.8
2518375.9
2520153.4
2521924.3
2523701.8
2525485.8
2527267.1
2529031.9
2530784.6
2532538.7
2534299.6
2536062
2537812.8
2539548.5
2541290.1
2543045.3
2544804.7
2546557.5
2548293.2
2550023
2551751
2553477.7
2555200.8
2556899.9
2558583.5
2560270.8
2561963.8
2563655.8
2565335
2567012.6
2568691.9
2570377.4
2572071.1
2573752.7
2575424.2
2577089.2
2578752.3
2580416.4
2582070.5
2583714.7
2585360.1
2587018.7
2588685.3
2590342.7
2591990.2
2593637.4
2595290.9
2596946.1
2598591.4
2600227
2601863.6
2603506.5
2605148.9
2606781.6
2608407.4
2610042.4
2611682.4
2613321.4
2614950.6
2616572.8
2618197.2
2619828
2621456.4
2623073.2
2624693.2
2626317.7
2627946.4
2629579.2
2631201.1
2632819.8
2634444.3
2636071
2637690.8
2639302.2
2640914.6
2642532.7
2644149.7
2645757.9
2647360.9
2648967
2650585.3
2652208.3
2653821.9
2655424.6
2657031.5
2658640.8
2660244.4
2661841.2
2663439
2665041.6
2666642.7
2668234.2
2669822.7
2671424.2
2673027.9
2674626.1
2676216.7
2677808.2
2679405.5
2681008.4
2682601.8
2684192.9
2685788.9
2687386.7
2688970.2
2690547.5
2692127.1
2693702.8
2695275
2696839.1
2698410.2
2699994.3
2701578.9
2703164.7
2704745.6
2706329.4
2707916.2
2709490.1
2711049.7
2712610.1
2714174.8
2715736.6
2717290.3
2718843.8
2720402.6
2721959.9
2723509.2
2725056.2
2726607.4
2728158.9
2729704.3
2731246.2
2732791
2734336.7
2735876.9
2737413.1
2738951.4
2740483.6
2742011.2
2743533.3
2745057.5
2746584
2748105.7
2749622.7
2751141.2
2752662.4
2754180.3
2755692.2
2757204.3
2758727.7
2760256.7
2761780.3
2763295.7
2764805.5
2766311.8
2767812.7
2769315.3
2770820.5
2772321
2773807.8
2775296.6
2776796.2
2778291
2779772.6
2781247.8
2782724.3
2784195.7
2785663
2787133
2788603.8
2790077.6
2791548.4
2793023.1
2794497.6
2795955.7
2797403.4
2798847
2800288.4
2801724
2803159.8
2804588.9
2806005.3
2807417.1
2808831.5
2810247.2
2811657.3
2813064
2814473.8
2815883.3
2817295.3
2818706.8
2820121
2821531.8
2822938.2
2824345.8
2825763.8
2827185.5
2828604.6
2830026.2
2831446.3
2832861.3
2834276.5
2835692.5
2837104.6
2838514.8
2839926.5
2841336.9
2842741.7
2844146.7
2845553.9
2846956.1
2848355
2849757.6
2851159.9
2852555.3
2853950.3
2855338.8
2856714
2858087.1
2859461.7
2860823.6
2862182.3
2863543.4
2864903.7
2866258.6
2867613.3
2868970.7
2870324.5
2871684.4
2873054.8
2874424.5
2875790.7
2877157.3
2878524.4
2879887.4
2881249.7
2882613.5
2883973.9
2885321.4
2886670.5
2888019.1
2889364.5
2890720.4
2892085
2893453.7
2894823.4
2896193.9
2897559.5
2898915
2900261.6
2901596.1
2902919.7
2904232.8
2905543.4
2906852.9
2908162.8
2909470.7
2910774.9
2912089.1
2913413.6
2914734.2
2916054.9
2917375.2
2918690.5
2920006.4
2921322.7
2922634.7
2923937.4
2925230.2
2926508.6
2927788.5
2929068.5
2930334.4
2931599.9
2932866.3
2934128.8
2935390.4
2936652.7
2937911.4
2939159.7
2940398.3
2941623.5
2942847.8
2944071.5
2945292.6
2946514.1
2947734.6
2948951.1
2950157.9
2951354.3
2952547.6
2953740.9
2954933.3
2956123.2
2957311.8
2958499.3
2959684.8
2960869.1
2962052
2963234
2964415.1
2965593.9
2966772.4
2967949.7
2969123.9
2970297.5
2971470.5
2972641.2
2973821.4
2975000.3
2976177.2
2977353.5
2978517.6
2979669.7
2980821.3
2981970.3
2983119
2984267.5
2985413.1
2986558.1
2987702.4
2988845.4
2989987.2
2991126.9
2992266.3
2993404.5
2994540.1
2995675.7
2996810.4
2997933
2999055.6
3000175.9
3001294.5
3002411.9
3003528.2
3004644.2
3005769.2
3006904.1
3008038.2
3009169.8
3010300.9
3011430.9
3012560.1
3013689.1
3014815.5
3015941.3
3017066.4
3018190.4
3019313.5
3020434.8
3021555.8
3022676.1
3023795.5
3024914
3026030.4
3027145.9
3028261.3
3029364.7
3030455.4
3031544.3
3032632.1
3033718.5
3034803.7
3035887.9
3036982.1
3038075.7
3039167.9
3040258.4
3041336.4
3042414.2
3043491.4
3044567
3045641.9
3046703.7
3047764.3
3048836.3
3049907.5
3050965.9
3052023.2
3053078.9
3054133.4
3055187.6
3056240.9
3057292.7
3058331.1
3059368.4
3060417
3061463.8
3062509.8
3063554.5
3064586.2
3065617
3066646
3067662.2
3068677
3069690.4
3070702.2
3071712.8
3072722.4
3073730.6
3074737.7
3075743.5
3076748.4
3077752.1
3078754.4
3079755.7
3080755.9
3081767.6
3082778.4
3083788.3
3084797
3085804.3
3086811.2
3087817.3
3088821.8
3089825.1
3090827.6
3091829.6
3092830.7
3093817.5
3094803.1
3095800.8
3096810.7
3097819.8
3098814.5
3099807.9
3100814.5
3101833.9
3102851.7
3103868.5
3104885
3105901.2
3106916
3107929.2
3108942.1
3109954.5
3110965.7
3111976.2
3112985.7
3113994.5
3115002.9
3116010.4
3117016.3
3118021.3
3119026
3120030.3
3121033.6
3122036
3123037.4
3124037.5
3125051.6
3126080.1
3127122.7
3128163.8
3129204.3
3130244.1
3131268.2
3132291.5
3133314.2
3134320.7
3135325.7
3136330.1
3137318.9
3138291.5
3139263
3140233.4
3141202.8
3142156.2
3143092.9
3144028.1
3144977.8
3145926.8
3146874.5
3147820.9
3148766.9
3149713.8
3150673.1
3151627.5
3152583.9
3153542.6
3154499.8
3155455.6
3156410.1
3157350.3
3158275.9
3159196.7
3160112.6
3161030.1
3161933
3162834.2
3163750.7
3164662.1
3165555
3166436.2
3167298.5
3168155.7
3169014.5
3169874.8
3170733.2
3171572.4
3172409.9
3173248.6
3174088.6
3174926.7
3175763
3176597.6
3177430.3
3178261.2
3179093.3
3179923.6
3180749.1
3181575.8
3182403.6
3183229.6
3184053.8
3184876.2
3185696.7
3186499.1
3187283.3
3188062.5
3188839.7
3189617.8
3190391
3191162
3191953.8
3192763.5
3193591.4
3194417.5
3195241.6
3196064
3196904.9
3197764.5
3198646.3
3199550.7
3200471.2
3201386.9
3202304.5
3203224.2
3204142.3
3205059.1
3205974.6
3206910.3
3207844.9
3208756.2
3209647.1
3210539.8
3211427.7
3212311
3213196.1
3214060
3214922.1
3215782.8
3216641.8
3217499.3
3218355.1
3219212.4
3220068
3220919
3221771.4
3222597.6
3223394.5
3224192.3
3224988.1
3225779.2
3226571.1
3227338.3
3228103.3
3228866.1
3229624.2
3230403.5
3231209.9
3232017.4
3232820.2
3233618.2
3234414.4
3235208.6
3236000.9
3236788.4
3237571.2
3238351.9
3239127.9
3239899
3240668
3241435
3242199.9
3242959.9
3243715
3244497.5
3245307.9
3246113.6
3246914.7
3247744.6
3248570.1
3249391.3
3250211.1
3251029.6
3251875.3
3252713.8
3253548.1
3254381.3
3255213.6
3256051.6
3256895.4
3257732.1
3258568.1
3259420.2
3260271.9
3261116.7
3261968
3262822.7
3263663.4
3264514.6
3265344.9
3266160.8
3266983.9
3267789.5
3268602.5
3269427
3270237.5
3271033.9
3271823
3272608.8
3273395.6
3274160.3
3274918.4
3275658.2
3276379.5
3277082.1
3277769.9
3278438.7
3279117.6
3279782.4
3280456.7
3281136.6
3281801.6
3282439.9
3283052.6
3283655.2
3284268
3284866.7
3285447.9
3286041
3286611.3
3287151.1
3287698.7
3288232.2
3288746.7
3289260.6
3289749.3
3290239.1
3290733.1
3291228.5
3291697.4
3292145.7
3292595.8
3293027
3293462
3293876.5
3294278.7
3294663.6
3295017.8
3295381.6
3295734.9
3296074.3
3296413.7
3296722.4
3297015.9
3297288.9
3297569.6
3297826.5
3298065.5
3298302.2
3298503.6
3298671
3298800.3
3298890
3298942.6
3298998.1
3299014.3
)
;

boundaryField
{
INLET
{
    type            cyclic;
}
OUTLET
{
    type            cyclic;
}
WALL
{
    type            fixedValue;
    value           uniform 0;
}
CENTER
{
    type            symmetryPlane;
}
frontAndBackPlanes
{
    type            empty;
}
}


// ************************************************************************* //

