/*--------------------------------*- C++ -*----------------------------------*\
| =========                 |                                                 |
| \\      /  F ield         | OpenFOAM: The Open Source CFD Toolbox           |
|  \\    /   O peration     | Version:  v1806                                 |
|   \\  /    A nd           | Web:      www.OpenFOAM.com                      |
|    \\/     M anipulation  |                                                 |
\*---------------------------------------------------------------------------*/
FoamFile
{
    version     2.0;
    format      ascii;
    class       volScalarField;
    location    "10000";
    object      nut;
}
// * * * * * * * * * * * * * * * * * * * * * * * * * * * * * * * * * * * * * //

dimensions      [0 2 -1 0 0 0 0];


internalField   nonuniform List<scalar> 
1025
(
5.74943e-11
4.0788e-09
2.32591e-08
7.47074e-08
1.90953e-07
4.39e-07
9.48939e-07
1.93586e-06
3.67046e-06
6.37864e-06
1.01621e-05
1.50208e-05
2.09041e-05
2.77262e-05
3.53666e-05
4.36811e-05
5.25203e-05
6.17467e-05
7.12438e-05
8.09188e-05
9.07009e-05
0.000100538
0.000110392
0.000120235
0.00013005
0.000139822
0.000149544
0.00015921
0.000168816
0.000178361
0.000187846
0.00019727
0.000206634
0.000215942
0.000225193
0.00023439
0.000243534
0.000252628
0.000261675
0.000270677
0.000279634
0.000288551
0.000297428
0.000306267
0.000315071
0.000323841
0.000332579
0.000341286
0.000349963
0.000358614
0.00036724
0.00037584
0.000384417
0.000392973
0.000401507
0.000410024
0.000418522
0.000427002
0.000435466
0.000443916
0.000452352
0.000460775
0.000469186
0.000477586
0.000485975
0.000494356
0.000502727
0.000511091
0.000519448
0.000527799
0.000536145
0.000544485
0.000552821
0.000561155
0.000569485
0.000577813
0.00058614
0.000594467
0.000602793
0.000611119
0.000619446
0.000627775
0.000636105
0.000644439
0.000652775
0.000661116
0.00066946
0.000677809
0.000686163
0.000694524
0.00070289
0.000711262
0.000719642
0.00072803
0.000736426
0.000744832
0.000753245
0.000761668
0.000770102
0.000778546
0.000787
0.000795465
0.000803943
0.000812433
0.000820936
0.000829451
0.00083798
0.000846523
0.000855081
0.000863652
0.000872239
0.000880842
0.00088946
0.000898096
0.000906747
0.000915416
0.000924103
0.000932807
0.00094153
0.000950272
0.000959033
0.000967814
0.000976615
0.000985436
0.000994279
0.00100314
0.00101203
0.00102093
0.00102986
0.00103882
0.00104779
0.00105679
0.00106581
0.00107486
0.00108393
0.00109303
0.00110215
0.0011113
0.00112047
0.00112968
0.0011389
0.00114816
0.00115744
0.00116676
0.0011761
0.00118547
0.00119487
0.0012043
0.00121375
0.00122324
0.00123276
0.00124232
0.0012519
0.00126152
0.00127116
0.00128085
0.00129056
0.00130031
0.00131009
0.0013199
0.00132975
0.00133964
0.00134956
0.00135952
0.00136951
0.00137954
0.00138961
0.00139971
0.00140986
0.00142003
0.00143025
0.00144051
0.00145081
0.00146115
0.00147152
0.00148194
0.0014924
0.0015029
0.00151344
0.00152403
0.00153465
0.00154531
0.00155602
0.00156678
0.00157757
0.00158842
0.00159931
0.00161024
0.00162121
0.00163223
0.0016433
0.00165442
0.00166558
0.00167679
0.00168804
0.00169935
0.0017107
0.0017221
0.00173355
0.00174505
0.0017566
0.0017682
0.00177984
0.00179155
0.0018033
0.0018151
0.00182696
0.00183887
0.00185083
0.00186284
0.00187491
0.00188703
0.0018992
0.00191143
0.00192372
0.00193606
0.00194845
0.0019609
0.00197341
0.00198597
0.0019986
0.00201127
0.00202401
0.0020368
0.00204966
0.00206257
0.00207554
0.00208857
0.00210166
0.00211482
0.00212803
0.0021413
0.00215464
0.00216804
0.0021815
0.00219501
0.00220859
0.00222224
0.00223595
0.00224973
0.00226357
0.00227747
0.00229143
0.00230547
0.00231957
0.00233373
0.00234797
0.00236226
0.00237663
0.00239106
0.00240556
0.00242013
0.00243477
0.00244947
0.00246425
0.0024791
0.00249401
0.002509
0.00252405
0.00253917
0.00255437
0.00256964
0.00258498
0.0026004
0.00261588
0.00263144
0.00264707
0.00266278
0.00267855
0.00269441
0.00271034
0.00272634
0.00274242
0.00275857
0.0027748
0.0027911
0.00280749
0.00282395
0.00284049
0.0028571
0.00287379
0.00289056
0.00290742
0.00292435
0.00294135
0.00295844
0.0029756
0.00299285
0.00301018
0.00302759
0.00304508
0.00306265
0.0030803
0.00309804
0.00311586
0.00313375
0.00315174
0.0031698
0.00318796
0.00320619
0.00322451
0.00324291
0.0032614
0.00327998
0.00329864
0.00331738
0.00333621
0.00335513
0.00337413
0.00339322
0.0034124
0.00343166
0.00345102
0.00347046
0.00348999
0.00350961
0.00352932
0.00354912
0.00356901
0.00358899
0.00360905
0.00362921
0.00364946
0.0036698
0.00369023
0.00371075
0.00373137
0.00375207
0.00377287
0.00379377
0.00381476
0.00383583
0.00385701
0.00387827
0.00389963
0.00392108
0.00394264
0.00396428
0.00398602
0.00400786
0.00402979
0.00405181
0.00407394
0.00409616
0.00411847
0.00414088
0.00416339
0.004186
0.0042087
0.00423151
0.00425441
0.00427741
0.00430051
0.00432371
0.004347
0.0043704
0.0043939
0.00441749
0.00444119
0.00446498
0.00448888
0.00451288
0.00453697
0.00456117
0.00458547
0.00460987
0.00463438
0.00465898
0.00468369
0.0047085
0.00473341
0.00475843
0.00478355
0.00480877
0.0048341
0.00485953
0.00488506
0.00491069
0.00493644
0.00496228
0.00498823
0.00501428
0.00504045
0.00506671
0.00509308
0.00511956
0.00514614
0.00517283
0.00519963
0.00522653
0.00525353
0.00528064
0.00530786
0.00533519
0.00536262
0.00539016
0.00541781
0.00544557
0.00547343
0.0055014
0.00552948
0.00555767
0.00558596
0.00561436
0.00564288
0.0056715
0.00570022
0.00572906
0.005758
0.00578706
0.00581622
0.0058455
0.00587488
0.00590437
0.00593398
0.00596369
0.00599352
0.00602344
0.00605349
0.00608364
0.0061139
0.00614427
0.00617476
0.00620536
0.00623606
0.00626687
0.0062978
0.00632883
0.00635998
0.00639124
0.00642261
0.00645409
0.00648568
0.00651738
0.0065492
0.00658112
0.00661316
0.00664531
0.00667757
0.00670994
0.00674242
0.00677502
0.00680772
0.00684054
0.00687347
0.00690651
0.00693966
0.00697293
0.0070063
0.00703979
0.00707339
0.0071071
0.00714093
0.00717486
0.00720891
0.00724307
0.00727734
0.00731172
0.00734621
0.00738082
0.00741554
0.00745037
0.00748531
0.00752036
0.00755553
0.0075908
0.00762619
0.00766169
0.0076973
0.00773302
0.00776885
0.00780479
0.00784085
0.00787702
0.0079133
0.00794969
0.00798619
0.0080228
0.00805952
0.00809635
0.00813329
0.00817035
0.00820751
0.00824478
0.00828217
0.00831966
0.00835727
0.00839498
0.00843281
0.00847074
0.00850879
0.00854694
0.0085852
0.00862358
0.00866206
0.00870065
0.00873935
0.00877815
0.00881707
0.00885609
0.00889523
0.00893447
0.00897382
0.00901327
0.00905284
0.00909251
0.00913229
0.00917218
0.00921217
0.00925227
0.00929248
0.0093328
0.00937322
0.00941375
0.00945439
0.00949513
0.00953599
0.00957694
0.009618
0.00965917
0.00970044
0.00974181
0.00978329
0.00982487
0.00986656
0.00990835
0.00995024
0.00999223
0.0100343
0.0100765
0.0101188
0.0101612
0.0102037
0.0102463
0.010289
0.0103319
0.0103748
0.0104178
0.0104609
0.0105041
0.0105474
0.0105908
0.0106343
0.0106779
0.0107216
0.0107654
0.0108093
0.0108533
0.0108974
0.0109415
0.0109858
0.0110302
0.0110746
0.0111192
0.0111639
0.0112086
0.0112535
0.0112984
0.0113434
0.0113886
0.0114338
0.0114791
0.0115245
0.01157
0.0116156
0.0116613
0.011707
0.0117528
0.0117988
0.0118448
0.0118909
0.0119371
0.0119834
0.0120298
0.0120763
0.0121228
0.0121694
0.0122161
0.012263
0.0123099
0.0123568
0.0124039
0.012451
0.0124982
0.0125455
0.0125929
0.0126403
0.0126879
0.0127355
0.0127832
0.012831
0.0128789
0.0129268
0.0129748
0.0130229
0.0130711
0.0131193
0.0131676
0.013216
0.0132644
0.0133129
0.0133616
0.0134102
0.013459
0.0135078
0.0135567
0.0136057
0.0136547
0.0137038
0.0137529
0.0138022
0.0138515
0.0139008
0.0139502
0.0139997
0.0140492
0.0140989
0.0141486
0.0141983
0.0142481
0.014298
0.0143479
0.0143979
0.0144479
0.014498
0.0145482
0.0145984
0.0146487
0.014699
0.0147493
0.0147998
0.0148502
0.0149008
0.0149513
0.015002
0.0150527
0.0151034
0.0151542
0.015205
0.0152559
0.0153068
0.0153578
0.0154088
0.0154598
0.0155109
0.015562
0.0156132
0.0156645
0.0157157
0.015767
0.0158183
0.0158697
0.0159211
0.0159726
0.016024
0.0160756
0.0161271
0.0161787
0.0162303
0.0162819
0.0163336
0.0163853
0.016437
0.0164887
0.0165405
0.0165923
0.0166441
0.016696
0.0167478
0.0167997
0.0168516
0.0169035
0.0169555
0.0170074
0.0170594
0.0171114
0.0171634
0.0172155
0.0172675
0.0173195
0.0173715
0.0174236
0.0174757
0.0175278
0.0175799
0.017632
0.017684
0.0177361
0.0177882
0.0178403
0.0178924
0.0179445
0.0179966
0.0180487
0.0181008
0.0181529
0.018205
0.0182571
0.0183091
0.0183612
0.0184132
0.0184652
0.0185173
0.0185693
0.0186213
0.0186732
0.0187252
0.0187771
0.018829
0.0188809
0.0189328
0.0189847
0.0190365
0.0190882
0.01914
0.0191918
0.0192435
0.0192952
0.0193468
0.0193984
0.01945
0.0195016
0.0195531
0.0196046
0.019656
0.0197074
0.0197588
0.0198101
0.0198614
0.0199126
0.0199638
0.0200149
0.020066
0.0201171
0.0201681
0.020219
0.0202699
0.0203207
0.0203715
0.0204222
0.0204728
0.0205234
0.020574
0.0206245
0.0206749
0.0207252
0.0207755
0.0208257
0.0208758
0.0209259
0.0209759
0.0210258
0.0210757
0.0211255
0.0211752
0.0212248
0.0212744
0.0213238
0.0213732
0.0214225
0.0214718
0.0215209
0.0215699
0.0216189
0.0216677
0.0217165
0.0217652
0.0218138
0.0218623
0.0219107
0.021959
0.0220072
0.0220554
0.0221034
0.0221513
0.0221991
0.0222468
0.0222944
0.0223419
0.0223892
0.0224365
0.0224837
0.0225307
0.0225776
0.0226245
0.0226712
0.0227178
0.0227642
0.0228106
0.0228568
0.0229029
0.0229489
0.0229948
0.0230405
0.0230861
0.0231316
0.0231769
0.0232222
0.0232673
0.0233122
0.0233571
0.0234018
0.0234463
0.0234907
0.023535
0.0235792
0.0236232
0.023667
0.0237108
0.0237544
0.0237978
0.0238411
0.0238843
0.0239273
0.0239701
0.0240129
0.0240554
0.0240979
0.0241401
0.0241823
0.0242242
0.024266
0.0243077
0.0243492
0.0243906
0.0244318
0.0244728
0.0245137
0.0245545
0.0245951
0.0246355
0.0246758
0.0247159
0.0247558
0.0247956
0.0248353
0.0248748
0.0249141
0.0249532
0.0249922
0.0250311
0.0250698
0.0251083
0.0251467
0.0251849
0.0252229
0.0252608
0.0252986
0.0253362
0.0253736
0.0254108
0.0254479
0.0254849
0.0255217
0.0255583
0.0255948
0.0256312
0.0256673
0.0257034
0.0257392
0.025775
0.0258105
0.025846
0.0258813
0.0259164
0.0259514
0.0259862
0.026021
0.0260555
0.0260899
0.0261242
0.0261584
0.0261924
0.0262263
0.0262601
0.0262937
0.0263272
0.0263606
0.0263939
0.0264271
0.0264601
0.026493
0.0265259
0.0265586
0.0265912
0.0266237
0.0266561
0.0266884
0.0267206
0.0267527
0.0267848
0.0268167
0.0268486
0.0268804
0.0269122
0.0269438
0.0269755
0.027007
0.0270385
0.0270699
0.0271013
0.0271327
0.027164
0.0271953
0.0272266
0.0272578
0.027289
0.0273202
0.0273514
0.0273826
0.0274138
0.027445
0.0274763
0.0275075
0.0275388
0.0275701
0.0276014
0.0276328
0.0276642
0.0276957
0.0277272
0.0277588
0.0277905
0.0278222
0.027854
0.027886
0.027918
0.0279501
0.0279823
0.0280147
0.0280471
0.0280797
0.0281124
0.0281452
0.0281782
0.0282113
0.0282446
0.0282781
0.0283117
0.0283455
0.0283794
0.0284135
0.0284478
0.0284823
0.028517
0.0285518
0.0285869
0.0286222
0.0286576
0.0286933
0.0287292
0.0287653
0.0288016
0.0288381
0.0288748
0.0289117
0.0289488
0.0289862
0.0290237
0.0290615
0.0290994
0.0291376
0.0291759
0.0292144
0.0292531
0.029292
0.029331
0.0293702
0.0294096
0.029449
0.0294886
0.0295283
0.0295682
0.0296081
0.029648
0.029688
0.0297281
0.0297682
0.0298083
0.0298483
0.0298883
0.0299283
0.0299681
0.0300078
0.0300474
0.0300868
0.0301261
0.030165
0.0302038
0.0302422
0.0302803
0.030318
0.0303553
0.0303922
0.0304286
0.0304645
0.0304998
0.0305346
0.0305687
0.0306021
0.0306347
0.0306666
0.0306977
0.030728
0.0307573
0.0307856
0.030813
0.0308393
0.0308645
0.0308886
0.0309114
0.0309331
0.0309535
0.0309725
0.0309902
0.0310064
0.0310212
0.0310345
0.0310462
0.0310564
0.0310649
0.0310718
0.031077
0.0310805
0.0310823
)
;

boundaryField
{
    INLET
    {
        type            cyclic;
    }
    OUTLET
    {
        type            cyclic;
    }
    CENTER
    {
        type            symmetryPlane;
    }
    WALL
    {
        type            fixedValue;
        value           uniform 0;
    }
    frontAndBackPlanes
    {
        type            empty;
    }
}


// ************************************************************************* //
