/*--------------------------------*- C++ -*----------------------------------*\
| =========                 |                                                 |
| \\      /  F ield         | OpenFOAM: The Open Source CFD Toolbox           |
|  \\    /   O peration     | Version:  v1806                                 |
|   \\  /    A nd           | Web:      www.OpenFOAM.com                      |
|    \\/     M anipulation  |                                                 |
\*---------------------------------------------------------------------------*/
FoamFile
{
    version     2.0;
    format      ascii;
    class       volScalarField;
    location    "10000";
    object      p;
}
// * * * * * * * * * * * * * * * * * * * * * * * * * * * * * * * * * * * * * //

dimensions      [0 2 -2 0 0 0 0];


internalField   nonuniform List<scalar> 
1025
(
1.01717e-16
3.91755e-16
4.52801e-16
4.43397e-16
4.38595e-16
4.41818e-16
4.46487e-16
4.50813e-16
4.55201e-16
4.60089e-16
4.65691e-16
4.72147e-16
4.79601e-16
4.88201e-16
4.98067e-16
5.09317e-16
5.22048e-16
5.36324e-16
5.52193e-16
5.69681e-16
5.88794e-16
6.09537e-16
6.31907e-16
6.55883e-16
6.81435e-16
7.08582e-16
7.37279e-16
7.67488e-16
7.99184e-16
8.32372e-16
8.66991e-16
9.03032e-16
9.40502e-16
9.7933e-16
1.01949e-15
1.06098e-15
1.10379e-15
1.14789e-15
1.19326e-15
1.23986e-15
1.28767e-15
1.33671e-15
1.38692e-15
1.43829e-15
1.49084e-15
1.54452e-15
1.59933e-15
1.65518e-15
1.71214e-15
1.77018e-15
1.82926e-15
1.88937e-15
1.95055e-15
2.01277e-15
2.07587e-15
2.13998e-15
2.20507e-15
2.27112e-15
2.33807e-15
2.40599e-15
2.47481e-15
2.54452e-15
2.61516e-15
2.68667e-15
2.75907e-15
2.83227e-15
2.90636e-15
2.98131e-15
3.05713e-15
3.13373e-15
3.21109e-15
3.28921e-15
3.36809e-15
3.4478e-15
3.52836e-15
3.60961e-15
3.69156e-15
3.77427e-15
3.85771e-15
3.94188e-15
4.02677e-15
4.11239e-15
4.19865e-15
4.28558e-15
4.37321e-15
4.46152e-15
4.55051e-15
4.64017e-15
4.73043e-15
4.82135e-15
4.91292e-15
5.00513e-15
5.0979e-15
5.19131e-15
5.28536e-15
5.38007e-15
5.47532e-15
5.57113e-15
5.66753e-15
5.76448e-15
5.86192e-15
5.96009e-15
6.0588e-15
6.15803e-15
6.25784e-15
6.35823e-15
6.45907e-15
6.56034e-15
6.66225e-15
6.76473e-15
6.86775e-15
6.97119e-15
7.07517e-15
7.17948e-15
7.2844e-15
7.38989e-15
7.49577e-15
7.60232e-15
7.70929e-15
7.8166e-15
7.92431e-15
8.03265e-15
8.14137e-15
8.25047e-15
8.36008e-15
8.47028e-15
8.5808e-15
8.69159e-15
8.80272e-15
8.9146e-15
9.02676e-15
9.13937e-15
9.25228e-15
9.3657e-15
9.47943e-15
9.59366e-15
9.70822e-15
9.82324e-15
9.9385e-15
1.00542e-14
1.01704e-14
1.0287e-14
1.04039e-14
1.05214e-14
1.06391e-14
1.0757e-14
1.08754e-14
1.09941e-14
1.11131e-14
1.12326e-14
1.13523e-14
1.14725e-14
1.1593e-14
1.17138e-14
1.18348e-14
1.19563e-14
1.2078e-14
1.22001e-14
1.23223e-14
1.24455e-14
1.25686e-14
1.26919e-14
1.28156e-14
1.29397e-14
1.30641e-14
1.31887e-14
1.33138e-14
1.3439e-14
1.35645e-14
1.36906e-14
1.38169e-14
1.39432e-14
1.407e-14
1.41973e-14
1.43248e-14
1.44526e-14
1.45806e-14
1.47086e-14
1.48376e-14
1.49665e-14
1.50958e-14
1.5225e-14
1.53548e-14
1.54848e-14
1.56149e-14
1.57454e-14
1.58762e-14
1.60075e-14
1.61388e-14
1.62703e-14
1.64021e-14
1.65344e-14
1.66668e-14
1.67993e-14
1.6932e-14
1.70646e-14
1.71979e-14
1.73316e-14
1.74652e-14
1.75989e-14
1.77333e-14
1.78679e-14
1.80026e-14
1.81374e-14
1.82729e-14
1.84084e-14
1.85438e-14
1.86795e-14
1.88155e-14
1.89518e-14
1.90887e-14
1.92255e-14
1.93624e-14
1.95e-14
1.96376e-14
1.97757e-14
1.9914e-14
2.00525e-14
2.01912e-14
2.03301e-14
2.04694e-14
2.06085e-14
2.07479e-14
2.08876e-14
2.10276e-14
2.11675e-14
2.13079e-14
2.14487e-14
2.159e-14
2.17308e-14
2.18715e-14
2.20128e-14
2.21544e-14
2.22962e-14
2.24385e-14
2.2581e-14
2.27228e-14
2.2865e-14
2.30078e-14
2.31512e-14
2.32944e-14
2.34375e-14
2.3581e-14
2.3724e-14
2.38668e-14
2.40117e-14
2.41563e-14
2.43008e-14
2.44452e-14
2.45898e-14
2.47354e-14
2.48801e-14
2.50249e-14
2.51697e-14
2.53157e-14
2.5462e-14
2.56076e-14
2.57535e-14
2.58999e-14
2.60465e-14
2.61928e-14
2.63387e-14
2.64852e-14
2.66315e-14
2.67776e-14
2.69243e-14
2.70714e-14
2.72186e-14
2.73662e-14
2.75142e-14
2.76617e-14
2.78096e-14
2.79581e-14
2.81071e-14
2.82559e-14
2.84041e-14
2.85531e-14
2.87027e-14
2.88518e-14
2.9002e-14
2.91521e-14
2.93013e-14
2.94504e-14
2.96005e-14
2.97505e-14
2.99015e-14
3.00526e-14
3.02022e-14
3.03532e-14
3.05052e-14
3.06564e-14
3.08065e-14
3.09571e-14
3.11087e-14
3.1261e-14
3.14131e-14
3.15654e-14
3.1718e-14
3.187e-14
3.20225e-14
3.21756e-14
3.2328e-14
3.24808e-14
3.26339e-14
3.27872e-14
3.29404e-14
3.30939e-14
3.32488e-14
3.3403e-14
3.35566e-14
3.37109e-14
3.38657e-14
3.40199e-14
3.41742e-14
3.43288e-14
3.44836e-14
3.46386e-14
3.47938e-14
3.49492e-14
3.51031e-14
3.5258e-14
3.5414e-14
3.55685e-14
3.57232e-14
3.5878e-14
3.60329e-14
3.61889e-14
3.63441e-14
3.64998e-14
3.6656e-14
3.68113e-14
3.69671e-14
3.71235e-14
3.72796e-14
3.74363e-14
3.7593e-14
3.7748e-14
3.79058e-14
3.80639e-14
3.82221e-14
3.83788e-14
3.85361e-14
3.86938e-14
3.88529e-14
3.90109e-14
3.91677e-14
3.93255e-14
3.94834e-14
3.96423e-14
3.97976e-14
3.99538e-14
4.01089e-14
4.02669e-14
4.04258e-14
4.05841e-14
4.07404e-14
4.08976e-14
4.10553e-14
4.12124e-14
4.13699e-14
4.15267e-14
4.16832e-14
4.18414e-14
4.19994e-14
4.21569e-14
4.23146e-14
4.24732e-14
4.26336e-14
4.27915e-14
4.29455e-14
4.31032e-14
4.32631e-14
4.34243e-14
4.35798e-14
4.37338e-14
4.38923e-14
4.40502e-14
4.42101e-14
4.43685e-14
4.4527e-14
4.4686e-14
4.48434e-14
4.50013e-14
4.51601e-14
4.53194e-14
4.54767e-14
4.56341e-14
4.57898e-14
4.5949e-14
4.61091e-14
4.62663e-14
4.64261e-14
4.65831e-14
4.67413e-14
4.69021e-14
4.70609e-14
4.72177e-14
4.73738e-14
4.75316e-14
4.76885e-14
4.78423e-14
4.80056e-14
4.81632e-14
4.83192e-14
4.84789e-14
4.86383e-14
4.87982e-14
4.89548e-14
4.91123e-14
4.92703e-14
4.94291e-14
4.95897e-14
4.97486e-14
4.99051e-14
5.00608e-14
5.02182e-14
5.03764e-14
5.05356e-14
5.06965e-14
5.08541e-14
5.101e-14
5.11693e-14
5.13278e-14
5.14872e-14
5.16433e-14
5.18061e-14
5.19656e-14
5.21218e-14
5.22806e-14
5.24418e-14
5.26023e-14
5.27611e-14
5.29225e-14
5.30822e-14
5.32436e-14
5.34067e-14
5.35656e-14
5.37271e-14
5.38869e-14
5.40485e-14
5.42117e-14
5.43749e-14
5.45348e-14
5.47006e-14
5.48639e-14
5.5028e-14
5.51888e-14
5.53546e-14
5.55213e-14
5.56889e-14
5.58572e-14
5.60206e-14
5.61865e-14
5.63574e-14
5.65316e-14
5.669e-14
5.685e-14
5.70235e-14
5.71961e-14
5.73636e-14
5.75287e-14
5.76996e-14
5.78764e-14
5.80381e-14
5.81989e-14
5.83648e-14
5.85323e-14
5.87015e-14
5.88732e-14
5.90357e-14
5.92073e-14
5.93723e-14
5.95406e-14
5.97072e-14
5.98763e-14
6.00395e-14
6.02094e-14
6.03742e-14
6.05407e-14
6.07063e-14
6.08619e-14
6.10342e-14
6.12031e-14
6.13678e-14
6.15374e-14
6.17062e-14
6.1875e-14
6.20446e-14
6.22108e-14
6.23761e-14
6.25447e-14
6.27142e-14
6.28802e-14
6.30396e-14
6.32047e-14
6.33698e-14
6.35348e-14
6.37015e-14
6.38639e-14
6.40239e-14
6.41804e-14
6.43552e-14
6.45199e-14
6.46797e-14
6.48427e-14
6.50089e-14
6.51685e-14
6.5328e-14
6.54891e-14
6.56518e-14
6.58095e-14
6.5972e-14
6.61414e-14
6.63072e-14
6.64712e-14
6.66336e-14
6.67958e-14
6.69597e-14
6.71218e-14
6.72773e-14
6.74426e-14
6.76128e-14
6.77696e-14
6.79281e-14
6.80948e-14
6.82498e-14
6.84113e-14
6.85744e-14
6.87325e-14
6.88839e-14
6.90435e-14
6.92014e-14
6.93591e-14
6.95185e-14
6.96777e-14
6.98303e-14
6.99893e-14
7.01532e-14
7.03236e-14
7.04758e-14
7.06198e-14
7.07653e-14
7.09303e-14
7.10887e-14
7.12438e-14
7.14052e-14
7.15585e-14
7.17132e-14
7.18679e-14
7.20175e-14
7.21622e-14
7.23296e-14
7.24952e-14
7.26477e-14
7.27952e-14
7.29492e-14
7.31079e-14
7.32632e-14
7.34152e-14
7.35638e-14
7.37139e-14
7.38753e-14
7.40316e-14
7.41958e-14
7.43632e-14
7.4516e-14
7.46526e-14
7.47955e-14
7.49559e-14
7.51115e-14
7.52637e-14
7.54206e-14
7.55836e-14
7.57242e-14
7.58711e-14
7.60274e-14
7.619e-14
7.63366e-14
7.64893e-14
7.66307e-14
7.6788e-14
7.69356e-14
7.70766e-14
7.72319e-14
7.73981e-14
7.75404e-14
7.76826e-14
7.78245e-14
7.79947e-14
7.81586e-14
7.83128e-14
7.84511e-14
7.85893e-14
7.87587e-14
7.89154e-14
7.90626e-14
7.92346e-14
7.94003e-14
7.95471e-14
7.96812e-14
7.98183e-14
7.9949e-14
8.0092e-14
8.02504e-14
8.03869e-14
8.05294e-14
8.0681e-14
8.08263e-14
8.09715e-14
8.11196e-14
8.12521e-14
8.13875e-14
8.15536e-14
8.1701e-14
8.1836e-14
8.19984e-14
8.21086e-14
8.22522e-14
8.2414e-14
8.25452e-14
8.26487e-14
8.27765e-14
8.29011e-14
8.30376e-14
8.3177e-14
8.33223e-14
8.34251e-14
8.35429e-14
8.36605e-14
8.3784e-14
8.39103e-14
8.40125e-14
8.41325e-14
8.42764e-14
8.43871e-14
8.44886e-14
8.46259e-14
8.4763e-14
8.48999e-14
8.5004e-14
8.51167e-14
8.52353e-14
8.53538e-14
8.5472e-14
8.55931e-14
8.57198e-14
8.58258e-14
8.59463e-14
8.60608e-14
8.61692e-14
8.62717e-14
8.63828e-14
8.64615e-14
8.65519e-14
8.6677e-14
8.6799e-14
8.69238e-14
8.70193e-14
8.71061e-14
8.72101e-14
8.73255e-14
8.74262e-14
8.75153e-14
8.76273e-14
8.7739e-14
8.78277e-14
8.79106e-14
8.80161e-14
8.81101e-14
8.81954e-14
8.83033e-14
8.84053e-14
8.84789e-14
8.85749e-14
8.8699e-14
8.87778e-14
8.88453e-14
8.8935e-14
8.90135e-14
8.91086e-14
8.9198e-14
8.92704e-14
8.93483e-14
8.94261e-14
8.94982e-14
8.95701e-14
8.96696e-14
8.97524e-14
8.98405e-14
8.99065e-14
8.99888e-14
9.006e-14
9.01365e-14
9.02239e-14
9.03165e-14
9.03817e-14
9.04577e-14
9.05444e-14
9.06147e-14
9.07011e-14
9.07765e-14
9.08411e-14
9.09162e-14
9.1002e-14
9.10661e-14
9.11302e-14
9.11941e-14
9.12579e-14
9.13375e-14
9.13799e-14
9.14592e-14
9.15278e-14
9.15752e-14
9.1612e-14
9.16644e-14
9.17063e-14
9.17585e-14
9.18158e-14
9.1821e-14
9.18418e-14
9.18729e-14
9.19091e-14
9.19555e-14
9.19864e-14
9.20018e-14
9.19967e-14
9.20171e-14
9.20375e-14
9.20834e-14
9.20986e-14
9.21139e-14
9.21341e-14
9.21594e-14
9.21997e-14
9.22248e-14
9.22449e-14
9.22649e-14
9.22799e-14
9.23049e-14
9.23347e-14
9.23695e-14
9.24339e-14
9.24932e-14
9.25327e-14
9.25622e-14
9.26359e-14
9.26898e-14
9.27289e-14
9.27874e-14
9.28604e-14
9.29284e-14
9.30252e-14
9.30446e-14
9.30976e-14
9.31697e-14
9.32369e-14
9.32896e-14
9.33565e-14
9.33898e-14
9.34611e-14
9.35322e-14
9.35985e-14
9.36551e-14
9.37069e-14
9.37961e-14
9.38664e-14
9.39085e-14
9.39691e-14
9.40435e-14
9.41084e-14
9.41825e-14
9.42471e-14
9.433e-14
9.44219e-14
9.4541e-14
9.45958e-14
9.46414e-14
9.46869e-14
9.48411e-14
9.49497e-14
9.50219e-14
9.51119e-14
9.52106e-14
9.53181e-14
9.54342e-14
9.55143e-14
9.56032e-14
9.56829e-14
9.57448e-14
9.59034e-14
9.60177e-14
9.61317e-14
9.62453e-14
9.635e-14
9.64282e-14
9.65236e-14
9.6662e-14
9.66965e-14
9.67739e-14
9.68597e-14
9.69623e-14
9.70903e-14
9.71753e-14
9.72178e-14
9.72431e-14
9.7319e-14
9.74284e-14
9.74787e-14
9.74955e-14
9.75372e-14
9.75954e-14
9.767e-14
9.77113e-14
9.77526e-14
9.78348e-14
9.79004e-14
9.79003e-14
9.79166e-14
9.79735e-14
9.80221e-14
9.80706e-14
9.8127e-14
9.81591e-14
9.81991e-14
9.82869e-14
9.83188e-14
9.83664e-14
9.84455e-14
9.85086e-14
9.854e-14
9.86184e-14
9.86809e-14
9.87199e-14
9.87354e-14
9.87277e-14
9.87585e-14
9.88278e-14
9.89045e-14
9.88969e-14
9.89502e-14
9.90186e-14
9.91096e-14
9.91624e-14
9.9185e-14
9.92e-14
9.92599e-14
9.92673e-14
9.9245e-14
9.92302e-14
9.92745e-14
9.93113e-14
9.93333e-14
9.93626e-14
9.94064e-14
9.93991e-14
9.94063e-14
9.94641e-14
9.94065e-14
9.94854e-14
9.95712e-14
9.95997e-14
9.96992e-14
9.97346e-14
9.97205e-14
9.96361e-14
9.96431e-14
9.9657e-14
9.96988e-14
9.96988e-14
9.97265e-14
9.97816e-14
9.98503e-14
9.98366e-14
9.98366e-14
9.9891e-14
9.99046e-14
9.99451e-14
9.99316e-14
9.99719e-14
9.99853e-14
9.99852e-14
9.99587e-14
9.99587e-14
9.99191e-14
1.00011e-13
1.00142e-13
1.00064e-13
1.00051e-13
1.00142e-13
1.00232e-13
1.0018e-13
1.0018e-13
1.00168e-13
1.00244e-13
1.00244e-13
1.00295e-13
1.0032e-13
1.00358e-13
1.00483e-13
1.00508e-13
1.00433e-13
1.00371e-13
1.0047e-13
1.00568e-13
1.00654e-13
1.00618e-13
1.00581e-13
1.00593e-13
1.00726e-13
1.00822e-13
1.00906e-13
1.00954e-13
1.01038e-13
1.01097e-13
1.0118e-13
1.01215e-13
1.01274e-13
1.01321e-13
1.01484e-13
1.01519e-13
1.01565e-13
1.0175e-13
1.01888e-13
1.01991e-13
1.02094e-13
1.02219e-13
1.02367e-13
1.02446e-13
1.02547e-13
1.02671e-13
1.02749e-13
1.02894e-13
1.03049e-13
1.03016e-13
1.0306e-13
1.03181e-13
1.03247e-13
1.03269e-13
1.03312e-13
1.03355e-13
1.03474e-13
1.03603e-13
1.03657e-13
1.03764e-13
1.03839e-13
1.03881e-13
1.03881e-13
1.03955e-13
1.04081e-13
1.0406e-13
1.04279e-13
1.04352e-13
1.04445e-13
1.04528e-13
1.04569e-13
1.0462e-13
1.04743e-13
1.04855e-13
1.04936e-13
1.05007e-13
1.05158e-13
1.05229e-13
1.05339e-13
1.05449e-13
1.05538e-13
1.05509e-13
1.05558e-13
1.05666e-13
1.05745e-13
1.05823e-13
1.05931e-13
1.06018e-13
1.06047e-13
1.06076e-13
1.06163e-13
1.06144e-13
1.06144e-13
1.06258e-13
1.06296e-13
1.0622e-13
1.06239e-13
1.06258e-13
1.06314e-13
1.06426e-13
1.06352e-13
1.06259e-13
1.06241e-13
1.06277e-13
1.06277e-13
1.06259e-13
1.06332e-13
1.06314e-13
1.06296e-13
1.06296e-13
1.06332e-13
1.06314e-13
1.06332e-13
1.06367e-13
1.06296e-13
1.06243e-13
1.06384e-13
1.06384e-13
1.06472e-13
1.06542e-13
1.06611e-13
1.06525e-13
1.06507e-13
1.06525e-13
1.06525e-13
1.0661e-13
1.06695e-13
1.06678e-13
1.06695e-13
1.06762e-13
1.06762e-13
1.06779e-13
1.06878e-13
1.06828e-13
1.06779e-13
1.06779e-13
1.06795e-13
1.06828e-13
1.06796e-13
1.06812e-13
1.06901e-13
)
;

boundaryField
{
    INLET
    {
        type            cyclic;
    }
    OUTLET
    {
        type            cyclic;
    }
    CENTER
    {
        type            symmetryPlane;
    }
    WALL
    {
        type            zeroGradient;
    }
    frontAndBackPlanes
    {
        type            empty;
    }
}


// ************************************************************************* //
