/*--------------------------------*- C++ -*----------------------------------*\
| =========                 |                                                 |
| \\      /  F ield         | OpenFOAM: The Open Source CFD Toolbox           |
|  \\    /   O peration     | Version:  v1806                                 |
|   \\  /    A nd           | Web:      www.OpenFOAM.com                      |
|    \\/     M anipulation  |                                                 |
\*---------------------------------------------------------------------------*/
FoamFile
{
    version     2.0;
    format      ascii;
    class       surfaceScalarField;
    location    "10000";
    object      phi;
}
// * * * * * * * * * * * * * * * * * * * * * * * * * * * * * * * * * * * * * //

dimensions      [0 3 -1 0 0 0 0];
oriented        oriented;


internalField   nonuniform List<scalar> 
1024
(
-4.21574e-18
-4.21547e-18
-4.21551e-18
-4.21532e-18
-4.21536e-18
-4.21523e-18
-4.21525e-18
-4.21516e-18
-4.2152e-18
-4.21514e-18
-4.21516e-18
-4.21512e-18
-4.21515e-18
-4.21505e-18
-4.21505e-18
-4.21503e-18
-4.21505e-18
-4.21502e-18
-4.21503e-18
-4.215e-18
-4.21502e-18
-4.215e-18
-4.21502e-18
-4.21501e-18
-4.21507e-18
-4.21508e-18
-4.21508e-18
-4.21508e-18
-4.2151e-18
-4.21506e-18
-4.21507e-18
-4.21512e-18
-4.2151e-18
-4.21506e-18
-4.21507e-18
-4.21506e-18
-4.21506e-18
-4.21505e-18
-4.21506e-18
-4.21503e-18
-4.21505e-18
-4.21506e-18
-4.21508e-18
-4.21508e-18
-4.21507e-18
-4.21504e-18
-4.21506e-18
-4.21506e-18
-4.21506e-18
-4.21504e-18
-4.21503e-18
-4.21503e-18
-4.21503e-18
-4.21496e-18
-4.21497e-18
-4.21495e-18
-4.21494e-18
-4.21486e-18
-4.21489e-18
-4.21489e-18
-4.21491e-18
-4.21492e-18
-4.21493e-18
-4.21494e-18
-4.21493e-18
-4.21494e-18
-4.21495e-18
-4.21495e-18
-4.21491e-18
-4.21486e-18
-4.21482e-18
-4.2148e-18
-4.21477e-18
-4.21479e-18
-4.21472e-18
-4.21469e-18
-4.2147e-18
-4.21469e-18
-4.21469e-18
-4.21469e-18
-4.21469e-18
-4.21462e-18
-4.21461e-18
-4.21461e-18
-4.21463e-18
-4.21463e-18
-4.21466e-18
-4.21461e-18
-4.21463e-18
-4.21464e-18
-4.21465e-18
-4.2146e-18
-4.21462e-18
-4.21462e-18
-4.21462e-18
-4.2146e-18
-4.21453e-18
-4.2145e-18
-4.21453e-18
-4.21454e-18
-4.21456e-18
-4.21453e-18
-4.21453e-18
-4.21451e-18
-4.21451e-18
-4.2145e-18
-4.21448e-18
-4.2145e-18
-4.21451e-18
-4.2145e-18
-4.21448e-18
-4.21446e-18
-4.21447e-18
-4.21456e-18
-4.21456e-18
-4.21457e-18
-4.2146e-18
-4.21461e-18
-4.21452e-18
-4.21453e-18
-4.21457e-18
-4.2145e-18
-4.21456e-18
-4.21455e-18
-4.21458e-18
-4.21443e-18
-4.21428e-18
-4.21426e-18
-4.21438e-18
-4.21426e-18
-4.2143e-18
-4.21418e-18
-4.2142e-18
-4.21421e-18
-4.2142e-18
-4.21424e-18
-4.21422e-18
-4.21423e-18
-4.21422e-18
-4.21428e-18
-4.21427e-18
-4.21422e-18
-4.21423e-18
-4.21418e-18
-4.21413e-18
-4.21408e-18
-4.21397e-18
-4.2139e-18
-4.2139e-18
-4.21383e-18
-4.21381e-18
-4.21376e-18
-4.21365e-18
-4.2136e-18
-4.21357e-18
-4.21355e-18
-4.21361e-18
-4.21361e-18
-4.2138e-18
-4.21372e-18
-4.21373e-18
-4.21369e-18
-4.21371e-18
-4.21372e-18
-4.21372e-18
-4.21374e-18
-4.2137e-18
-4.2137e-18
-4.21371e-18
-4.21372e-18
-4.21371e-18
-4.21367e-18
-4.21366e-18
-4.2137e-18
-4.21367e-18
-4.21372e-18
-4.21371e-18
-4.21382e-18
-4.21373e-18
-4.21368e-18
-4.21354e-18
-4.21354e-18
-4.21358e-18
-4.21357e-18
-4.21359e-18
-4.21358e-18
-4.21364e-18
-4.2136e-18
-4.21361e-18
-4.21362e-18
-4.21367e-18
-4.21343e-18
-4.2132e-18
-4.21313e-18
-4.21307e-18
-4.21316e-18
-4.21306e-18
-4.21305e-18
-4.21306e-18
-4.2133e-18
-4.21333e-18
-4.21336e-18
-4.2134e-18
-4.2133e-18
-4.21308e-18
-4.21296e-18
-4.21297e-18
-4.21292e-18
-4.21285e-18
-4.21314e-18
-4.21315e-18
-4.21317e-18
-4.2134e-18
-4.21349e-18
-4.21354e-18
-4.21348e-18
-4.21346e-18
-4.21344e-18
-4.21342e-18
-4.21343e-18
-4.21315e-18
-4.21317e-18
-4.21319e-18
-4.2132e-18
-4.21316e-18
-4.21335e-18
-4.21327e-18
-4.21323e-18
-4.21297e-18
-4.21287e-18
-4.21289e-18
-4.21288e-18
-4.21282e-18
-4.2128e-18
-4.21266e-18
-4.21236e-18
-4.21234e-18
-4.21235e-18
-4.2124e-18
-4.21239e-18
-4.21194e-18
-4.21193e-18
-4.21192e-18
-4.21195e-18
-4.21252e-18
-4.21244e-18
-4.21237e-18
-4.21247e-18
-4.21238e-18
-4.21268e-18
-4.21216e-18
-4.21205e-18
-4.21196e-18
-4.21245e-18
-4.21239e-18
-4.2121e-18
-4.21172e-18
-4.2115e-18
-4.21142e-18
-4.21081e-18
-4.21013e-18
-4.21015e-18
-4.20988e-18
-4.20956e-18
-4.20935e-18
-4.20948e-18
-4.20954e-18
-4.20959e-18
-4.20961e-18
-4.2098e-18
-4.20978e-18
-4.20977e-18
-4.20971e-18
-4.20981e-18
-4.20944e-18
-4.20934e-18
-4.20932e-18
-4.20901e-18
-4.20894e-18
-4.20861e-18
-4.20817e-18
-4.20783e-18
-4.20804e-18
-4.20809e-18
-4.20807e-18
-4.20802e-18
-4.2072e-18
-4.20721e-18
-4.20714e-18
-4.20685e-18
-4.20657e-18
-4.20658e-18
-4.20682e-18
-4.20697e-18
-4.20694e-18
-4.2069e-18
-4.20687e-18
-4.20663e-18
-4.20654e-18
-4.20637e-18
-4.20637e-18
-4.20622e-18
-4.20615e-18
-4.20613e-18
-4.20618e-18
-4.20624e-18
-4.2064e-18
-4.20624e-18
-4.20621e-18
-4.20628e-18
-4.2062e-18
-4.2059e-18
-4.2058e-18
-4.20579e-18
-4.20584e-18
-4.20591e-18
-4.20605e-18
-4.20584e-18
-4.20505e-18
-4.20499e-18
-4.2049e-18
-4.20434e-18
-4.20445e-18
-4.20448e-18
-4.20456e-18
-4.20444e-18
-4.20464e-18
-4.20466e-18
-4.20463e-18
-4.20431e-18
-4.20428e-18
-4.20425e-18
-4.20446e-18
-4.20442e-18
-4.20451e-18
-4.20433e-18
-4.20525e-18
-4.20524e-18
-4.20538e-18
-4.20521e-18
-4.20537e-18
-4.20543e-18
-4.20567e-18
-4.20471e-18
-4.20386e-18
-4.20403e-18
-4.20314e-18
-4.20333e-18
-4.20208e-18
-4.20191e-18
-4.20151e-18
-4.20271e-18
-4.20268e-18
-4.20231e-18
-4.20232e-18
-4.20271e-18
-4.20231e-18
-4.20248e-18
-4.20285e-18
-4.20303e-18
-4.20327e-18
-4.20309e-18
-4.20327e-18
-4.20337e-18
-4.20344e-18
-4.20345e-18
-4.20345e-18
-4.20286e-18
-4.20219e-18
-4.20216e-18
-4.2024e-18
-4.20246e-18
-4.20042e-18
-4.19987e-18
-4.20066e-18
-4.20063e-18
-4.2011e-18
-4.20144e-18
-4.20122e-18
-4.20093e-18
-4.20023e-18
-4.19995e-18
-4.19977e-18
-4.19962e-18
-4.19836e-18
-4.19843e-18
-4.19765e-18
-4.19784e-18
-4.19816e-18
-4.19836e-18
-4.19956e-18
-4.19905e-18
-4.19879e-18
-4.19881e-18
-4.19711e-18
-4.19533e-18
-4.19541e-18
-4.1954e-18
-4.19524e-18
-4.19505e-18
-4.19709e-18
-4.19722e-18
-4.19747e-18
-4.19758e-18
-4.19744e-18
-4.19717e-18
-4.19672e-18
-4.19632e-18
-4.19595e-18
-4.19566e-18
-4.19561e-18
-4.19428e-18
-4.1934e-18
-4.19351e-18
-4.19373e-18
-4.19343e-18
-4.19318e-18
-4.19364e-18
-4.19298e-18
-4.19266e-18
-4.19351e-18
-4.19369e-18
-4.19306e-18
-4.19149e-18
-4.19273e-18
-4.19325e-18
-4.19081e-18
-4.19088e-18
-4.19089e-18
-4.19164e-18
-4.19204e-18
-4.19192e-18
-4.19133e-18
-4.19113e-18
-4.1909e-18
-4.18972e-18
-4.18966e-18
-4.19025e-18
-4.19019e-18
-4.19011e-18
-4.1897e-18
-4.18976e-18
-4.19127e-18
-4.19131e-18
-4.19085e-18
-4.19123e-18
-4.1919e-18
-4.19161e-18
-4.19245e-18
-4.19286e-18
-4.19356e-18
-4.19275e-18
-4.19219e-18
-4.19188e-18
-4.1904e-18
-4.19023e-18
-4.19172e-18
-4.19161e-18
-4.19156e-18
-4.19127e-18
-4.19142e-18
-4.1914e-18
-4.18613e-18
-4.18497e-18
-4.18523e-18
-4.18558e-18
-4.18586e-18
-4.18638e-18
-4.18433e-18
-4.18496e-18
-4.18377e-18
-4.18296e-18
-4.1823e-18
-4.1829e-18
-4.1789e-18
-4.17854e-18
-4.17603e-18
-4.17675e-18
-4.17652e-18
-4.17405e-18
-4.17984e-18
-4.18037e-18
-4.18109e-18
-4.18332e-18
-4.18276e-18
-4.18353e-18
-4.1827e-18
-4.18279e-18
-4.1833e-18
-4.18251e-18
-4.18294e-18
-4.18152e-18
-4.17734e-18
-4.17674e-18
-4.17711e-18
-4.17762e-18
-4.17808e-18
-4.1757e-18
-4.17561e-18
-4.17461e-18
-4.17727e-18
-4.1759e-18
-4.17599e-18
-4.17626e-18
-4.1763e-18
-4.17486e-18
-4.17539e-18
-4.17653e-18
-4.17508e-18
-4.1766e-18
-4.18081e-18
-4.18429e-18
-4.18506e-18
-4.18659e-18
-4.18385e-18
-4.18415e-18
-4.18503e-18
-4.18326e-18
-4.18326e-18
-4.18171e-18
-4.18223e-18
-4.17953e-18
-4.17856e-18
-4.17876e-18
-4.17566e-18
-4.17599e-18
-4.17565e-18
-4.17168e-18
-4.17034e-18
-4.17159e-18
-4.17104e-18
-4.17112e-18
-4.17145e-18
-4.17158e-18
-4.17326e-18
-4.17413e-18
-4.17463e-18
-4.17554e-18
-4.17154e-18
-4.16689e-18
-4.16799e-18
-4.17056e-18
-4.17171e-18
-4.1727e-18
-4.17716e-18
-4.1725e-18
-4.17305e-18
-4.17331e-18
-4.17346e-18
-4.17372e-18
-4.17875e-18
-4.17864e-18
-4.17941e-18
-4.17472e-18
-4.17422e-18
-4.17323e-18
-4.17416e-18
-4.1717e-18
-4.17183e-18
-4.17338e-18
-4.17825e-18
-4.1773e-18
-4.1773e-18
-4.17453e-18
-4.16887e-18
-4.16118e-18
-4.16122e-18
-4.16404e-18
-4.16364e-18
-4.16354e-18
-4.16369e-18
-4.16376e-18
-4.15817e-18
-4.1581e-18
-4.15811e-18
-4.15756e-18
-4.15212e-18
-4.14821e-18
-4.14315e-18
-4.14241e-18
-4.1426e-18
-4.14077e-18
-4.14185e-18
-4.14295e-18
-4.13834e-18
-4.13511e-18
-4.13176e-18
-4.14081e-18
-4.14244e-18
-4.14371e-18
-4.13794e-18
-4.136e-18
-4.1416e-18
-4.13982e-18
-4.13841e-18
-4.13607e-18
-4.13223e-18
-4.12468e-18
-4.11744e-18
-4.10932e-18
-4.10864e-18
-4.11192e-18
-4.11657e-18
-4.1151e-18
-4.11206e-18
-4.11505e-18
-4.11617e-18
-4.11857e-18
-4.12154e-18
-4.12195e-18
-4.12039e-18
-4.1372e-18
-4.13396e-18
-4.12418e-18
-4.13347e-18
-4.11582e-18
-4.11465e-18
-4.11332e-18
-4.10886e-18
-4.09884e-18
-4.10658e-18
-4.10362e-18
-4.10411e-18
-4.10111e-18
-4.09883e-18
-4.09219e-18
-4.08992e-18
-4.08358e-18
-4.08566e-18
-4.08828e-18
-4.08667e-18
-4.09328e-18
-4.10242e-18
-4.10226e-18
-4.10512e-18
-4.10885e-18
-4.11051e-18
-4.11139e-18
-4.10371e-18
-4.10405e-18
-4.10386e-18
-4.1035e-18
-4.10303e-18
-4.10183e-18
-4.10055e-18
-4.08608e-18
-4.08354e-18
-4.08092e-18
-4.07677e-18
-4.06573e-18
-4.067e-18
-4.05794e-18
-4.0563e-18
-4.0612e-18
-4.06333e-18
-4.06547e-18
-4.05887e-18
-4.04786e-18
-4.04723e-18
-4.04528e-18
-4.0384e-18
-4.03257e-18
-4.03301e-18
-4.0294e-18
-4.02188e-18
-4.00997e-18
-4.01133e-18
-3.99529e-18
-3.9966e-18
-3.99602e-18
-3.99667e-18
-3.98189e-18
-3.98183e-18
-3.98188e-18
-3.96861e-18
-3.9514e-18
-3.95263e-18
-3.94689e-18
-3.94881e-18
-3.94541e-18
-3.92722e-18
-3.92668e-18
-3.92578e-18
-3.92503e-18
-3.92385e-18
-3.92595e-18
-3.92885e-18
-3.92597e-18
-3.91704e-18
-3.91624e-18
-3.92106e-18
-3.91974e-18
-3.92028e-18
-3.91967e-18
-3.91105e-18
-3.91135e-18
-3.91189e-18
-3.90546e-18
-3.90764e-18
-3.90449e-18
-3.88685e-18
-3.88385e-18
-3.88014e-18
-3.86779e-18
-3.87288e-18
-3.8549e-18
-3.85076e-18
-3.85396e-18
-3.83396e-18
-3.83163e-18
-3.82927e-18
-3.81098e-18
-3.79479e-18
-3.78821e-18
-3.77742e-18
-3.77091e-18
-3.75096e-18
-3.74273e-18
-3.73873e-18
-3.73347e-18
-3.73953e-18
-3.74407e-18
-3.72683e-18
-3.71115e-18
-3.6961e-18
-3.70415e-18
-3.70673e-18
-3.71661e-18
-3.70945e-18
-3.70863e-18
-3.70886e-18
-3.7086e-18
-3.71074e-18
-3.70636e-18
-3.70289e-18
-3.69689e-18
-3.70172e-18
-3.70007e-18
-3.6978e-18
-3.70336e-18
-3.72026e-18
-3.72428e-18
-3.72578e-18
-3.71959e-18
-3.71757e-18
-3.70091e-18
-3.69724e-18
-3.70114e-18
-3.70645e-18
-3.69309e-18
-3.68752e-18
-3.66703e-18
-3.66394e-18
-3.66945e-18
-3.64978e-18
-3.64181e-18
-3.64081e-18
-3.61457e-18
-3.64641e-18
-3.64316e-18
-3.63812e-18
-3.63144e-18
-3.6254e-18
-3.62905e-18
-3.62745e-18
-3.62269e-18
-3.61931e-18
-3.61602e-18
-3.60551e-18
-3.59732e-18
-3.60512e-18
-3.61812e-18
-3.62403e-18
-3.636e-18
-3.60263e-18
-3.5902e-18
-3.57759e-18
-3.59212e-18
-3.59555e-18
-3.60867e-18
-3.60638e-18
-3.59985e-18
-3.5934e-18
-3.58453e-18
-3.58596e-18
-3.57902e-18
-3.5757e-18
-3.56938e-18
-3.59189e-18
-3.60311e-18
-3.61043e-18
-3.61804e-18
-3.62624e-18
-3.58591e-18
-3.58175e-18
-3.58745e-18
-3.54979e-18
-3.54911e-18
-3.5369e-18
-3.54915e-18
-3.55265e-18
-3.52943e-18
-3.50572e-18
-3.46512e-18
-3.46654e-18
-3.46346e-18
-3.43934e-18
-3.40098e-18
-3.40411e-18
-3.40764e-18
-3.41413e-18
-3.38004e-18
-3.37794e-18
-3.38329e-18
-3.3709e-18
-3.34826e-18
-3.35314e-18
-3.34421e-18
-3.34737e-18
-3.34972e-18
-3.34989e-18
-3.36209e-18
-3.35429e-18
-3.38308e-18
-3.36164e-18
-3.36246e-18
-3.36242e-18
-3.34618e-18
-3.29629e-18
-3.29851e-18
-3.23579e-18
-3.21375e-18
-3.18511e-18
-3.18347e-18
-3.18671e-18
-3.19564e-18
-3.20503e-18
-3.18529e-18
-3.17805e-18
-3.17935e-18
-3.19029e-18
-3.17539e-18
-3.13096e-18
-3.08978e-18
-3.0767e-18
-3.01532e-18
-2.98307e-18
-2.97917e-18
-3.04153e-18
-3.04078e-18
-3.04182e-18
-3.04489e-18
-3.04918e-18
-3.0579e-18
-3.06572e-18
-3.06713e-18
-3.03017e-18
-3.07023e-18
-3.06798e-18
-3.06169e-18
-3.0496e-18
-2.97403e-18
-2.90217e-18
-2.82744e-18
-2.828e-18
-2.83509e-18
-2.82968e-18
-2.79078e-18
-2.77791e-18
-2.76767e-18
-2.79099e-18
-2.75749e-18
-2.70686e-18
-2.68102e-18
-2.62576e-18
-2.60072e-18
-2.54746e-18
-2.54966e-18
-2.48475e-18
-2.47561e-18
-2.46489e-18
-2.44471e-18
-2.45094e-18
-2.50844e-18
-2.52704e-18
-2.44743e-18
-2.45844e-18
-2.47563e-18
-2.46896e-18
-2.40444e-18
-2.40571e-18
-2.33282e-18
-2.34899e-18
-2.27972e-18
-2.29716e-18
-2.21853e-18
-2.23405e-18
-2.22436e-18
-2.11808e-18
-2.04368e-18
-1.96531e-18
-2.09434e-18
-2.10638e-18
-2.06711e-18
-1.99512e-18
-1.99046e-18
-2.01451e-18
-2.08442e-18
-2.08977e-18
-2.09084e-18
-2.11052e-18
-2.10545e-18
-2.12146e-18
-2.11651e-18
-2.14185e-18
-2.12193e-18
-2.13275e-18
-2.19464e-18
-2.21235e-18
-2.2894e-18
-2.3632e-18
-2.36955e-18
-2.38085e-18
-2.39244e-18
-2.4047e-18
-2.41618e-18
-2.38598e-18
-2.38377e-18
-2.37115e-18
-2.26973e-18
-2.24483e-18
-2.18995e-18
-2.05216e-18
-2.02888e-18
-2.00223e-18
-1.98484e-18
-1.89221e-18
-1.88778e-18
-1.8731e-18
-1.93456e-18
-1.92347e-18
-1.87014e-18
-1.85678e-18
-1.80051e-18
-1.79277e-18
-1.67317e-18
-1.71741e-18
-1.8277e-18
-1.73496e-18
-1.81919e-18
-1.76829e-18
-1.74789e-18
-1.74928e-18
-1.70128e-18
-1.69345e-18
-1.73168e-18
-1.7318e-18
-1.7182e-18
-1.70394e-18
-1.73563e-18
-1.67945e-18
-1.67588e-18
-1.60569e-18
-1.62958e-18
-1.54423e-18
-1.51822e-18
-1.54489e-18
-1.53108e-18
-1.52065e-18
-1.50674e-18
-1.45738e-18
-1.40285e-18
-1.38912e-18
-1.39707e-18
-1.27457e-18
-1.26774e-18
-1.21683e-18
-1.1931e-18
-1.04959e-18
-1.10736e-18
-1.11659e-18
-1.12308e-18
-1.11948e-18
-8.96137e-19
-8.71608e-19
-8.89181e-19
-9.04907e-19
-8.93464e-19
-9.00936e-19
-9.47225e-19
-8.89606e-19
-9.09772e-19
-9.33569e-19
-8.83048e-19
-7.99867e-19
-8.43809e-19
-8.58492e-19
-7.14579e-19
-7.45185e-19
-8.95262e-19
-9.41586e-19
-9.93352e-19
-1.0473e-18
-9.1493e-19
-7.0598e-19
-6.54396e-19
-7.05809e-19
-7.50884e-19
-7.47575e-19
-7.77008e-19
-6.31744e-19
-6.2134e-19
-6.01658e-19
-5.12663e-19
-5.35617e-19
-4.90902e-19
-3.25734e-19
-1.6325e-19
-1.39935e-19
-1.16155e-19
-1.00625e-19
-1.36208e-19
-1.47882e-19
-1.56908e-19
)
;

boundaryField
{
    INLET
    {
        type            cyclic;
        value           nonuniform List<scalar> 
1025
(
-5.53186e-09
-1.66877e-08
-2.79849e-08
-3.94126e-08
-5.09499e-08
-6.25499e-08
-7.41199e-08
-8.54926e-08
-9.64315e-08
-1.06668e-07
-1.16024e-07
-1.24412e-07
-1.31878e-07
-1.38513e-07
-1.44433e-07
-1.49752e-07
-1.54583e-07
-1.59012e-07
-1.63109e-07
-1.6694e-07
-1.70541e-07
-1.73966e-07
-1.77234e-07
-1.80377e-07
-1.83408e-07
-1.8635e-07
-1.89192e-07
-1.92006e-07
-1.94714e-07
-1.97413e-07
-2.00065e-07
-2.02631e-07
-2.05252e-07
-2.07797e-07
-2.10315e-07
-2.12809e-07
-2.15282e-07
-2.17786e-07
-2.20274e-07
-2.22702e-07
-2.25167e-07
-2.27623e-07
-2.30073e-07
-2.32517e-07
-2.34957e-07
-2.37444e-07
-2.39879e-07
-2.42314e-07
-2.44801e-07
-2.47289e-07
-2.49781e-07
-2.52224e-07
-2.54775e-07
-2.57228e-07
-2.59791e-07
-2.62361e-07
-2.64886e-07
-2.67419e-07
-2.70014e-07
-2.72618e-07
-2.75233e-07
-2.77858e-07
-2.80494e-07
-2.83142e-07
-2.85856e-07
-2.88529e-07
-2.9127e-07
-2.93969e-07
-2.96794e-07
-2.99521e-07
-3.02376e-07
-3.05134e-07
-3.08021e-07
-3.10924e-07
-3.13729e-07
-3.16724e-07
-3.19622e-07
-3.22653e-07
-3.25586e-07
-3.28655e-07
-3.31626e-07
-3.34793e-07
-3.37802e-07
-3.4101e-07
-3.4412e-07
-3.4731e-07
-3.50522e-07
-3.53756e-07
-3.57073e-07
-3.60351e-07
-3.63652e-07
-3.67038e-07
-3.70447e-07
-3.73881e-07
-3.77339e-07
-3.80885e-07
-3.8433e-07
-3.87927e-07
-3.9155e-07
-3.95134e-07
-3.9881e-07
-4.02512e-07
-4.06308e-07
-4.1e-07
-4.13917e-07
-4.17664e-07
-4.21572e-07
-4.25577e-07
-4.29477e-07
-4.33474e-07
-4.37569e-07
-4.41558e-07
-4.45783e-07
-4.49903e-07
-4.54123e-07
-4.58375e-07
-4.62659e-07
-4.66976e-07
-4.71397e-07
-4.7578e-07
-4.80269e-07
-4.84792e-07
-4.89349e-07
-4.93942e-07
-4.98643e-07
-5.03307e-07
-5.08008e-07
-5.12817e-07
-5.17738e-07
-5.22549e-07
-5.27472e-07
-5.32507e-07
-5.37582e-07
-5.42621e-07
-5.47774e-07
-5.52968e-07
-5.58202e-07
-5.63554e-07
-5.6887e-07
-5.74305e-07
-5.79704e-07
-5.85302e-07
-5.90865e-07
-5.96471e-07
-6.02201e-07
-6.07895e-07
-6.13713e-07
-6.19577e-07
-6.25568e-07
-6.31442e-07
-6.37525e-07
-6.43656e-07
-6.49835e-07
-6.56062e-07
-6.62337e-07
-6.6866e-07
-6.75117e-07
-6.81539e-07
-6.88182e-07
-6.94704e-07
-7.01449e-07
-7.08247e-07
-7.1501e-07
-7.21825e-07
-7.28868e-07
-7.35878e-07
-7.42941e-07
-7.50148e-07
-7.57411e-07
-7.64279e-07
-7.72012e-07
-7.80351e-07
-7.86934e-07
-7.94478e-07
-8.0208e-07
-8.10666e-07
-8.17461e-07
-8.26172e-07
-8.34015e-07
-8.41916e-07
-8.49876e-07
-8.57896e-07
-8.66934e-07
-8.75082e-07
-8.8329e-07
-8.92532e-07
-9.0087e-07
-9.09269e-07
-9.17729e-07
-9.27243e-07
-9.36833e-07
-9.44494e-07
-9.55225e-07
-9.6301e-07
-9.73897e-07
-9.81807e-07
-9.92849e-07
-1.00088e-06
-1.01208e-06
-1.02129e-06
-1.03056e-06
-1.04095e-06
-1.05142e-06
-1.06197e-06
-1.07153e-06
-1.08223e-06
-1.09301e-06
-1.10278e-06
-1.11481e-06
-1.12474e-06
-1.13584e-06
-1.14702e-06
-1.15717e-06
-1.16962e-06
-1.18106e-06
-1.19144e-06
-1.20303e-06
-1.21584e-06
-1.22647e-06
-1.23946e-06
-1.2514e-06
-1.26226e-06
-1.27553e-06
-1.28773e-06
-1.30001e-06
-1.31357e-06
-1.32485e-06
-1.33859e-06
-1.35124e-06
-1.36518e-06
-1.3768e-06
-1.39093e-06
-1.40517e-06
-1.41828e-06
-1.43148e-06
-1.44477e-06
-1.45941e-06
-1.47415e-06
-1.48773e-06
-1.50268e-06
-1.51646e-06
-1.53162e-06
-1.54559e-06
-1.56225e-06
-1.57513e-06
-1.59202e-06
-1.6064e-06
-1.6222e-06
-1.63811e-06
-1.65279e-06
-1.67026e-06
-1.68515e-06
-1.7015e-06
-1.71797e-06
-1.73591e-06
-1.75124e-06
-1.76805e-06
-1.78497e-06
-1.80201e-06
-1.81916e-06
-1.83643e-06
-1.85523e-06
-1.87274e-06
-1.89038e-06
-1.90813e-06
-1.92599e-06
-1.94543e-06
-1.96355e-06
-1.98178e-06
-2.00161e-06
-2.0201e-06
-2.04019e-06
-2.05893e-06
-2.07779e-06
-2.09828e-06
-2.11891e-06
-2.13816e-06
-2.15906e-06
-2.18011e-06
-2.19975e-06
-2.22107e-06
-2.24253e-06
-2.26414e-06
-2.28431e-06
-2.3062e-06
-2.32822e-06
-2.35039e-06
-2.37271e-06
-2.39518e-06
-2.41779e-06
-2.44055e-06
-2.46346e-06
-2.48651e-06
-2.51136e-06
-2.53307e-06
-2.55824e-06
-2.5819e-06
-2.60572e-06
-2.63137e-06
-2.6555e-06
-2.67978e-06
-2.70592e-06
-2.73052e-06
-2.757e-06
-2.78191e-06
-2.80873e-06
-2.83396e-06
-2.86111e-06
-2.88844e-06
-2.91416e-06
-2.94183e-06
-2.96967e-06
-2.99769e-06
-3.02408e-06
-3.05427e-06
-3.081e-06
-3.10972e-06
-3.14047e-06
-3.16772e-06
-3.19884e-06
-3.22644e-06
-3.25794e-06
-3.28777e-06
-3.31777e-06
-3.34797e-06
-3.38025e-06
-3.41083e-06
-3.44158e-06
-3.47446e-06
-3.50755e-06
-3.53695e-06
-3.57238e-06
-3.60412e-06
-3.63604e-06
-3.67013e-06
-3.70444e-06
-3.73896e-06
-3.77168e-06
-3.80863e-06
-3.84176e-06
-3.87712e-06
-3.91269e-06
-3.94848e-06
-3.98449e-06
-4.02071e-06
-4.05714e-06
-4.0959e-06
-4.13068e-06
-4.16988e-06
-4.20721e-06
-4.24689e-06
-4.28467e-06
-4.32267e-06
-4.36305e-06
-4.4015e-06
-4.44236e-06
-4.48347e-06
-4.52263e-06
-4.56421e-06
-4.60383e-06
-4.64812e-06
-4.68822e-06
-4.73079e-06
-4.77361e-06
-4.81668e-06
-4.86001e-06
-4.90359e-06
-4.94742e-06
-4.99381e-06
-5.03585e-06
-5.08276e-06
-5.12763e-06
-5.17509e-06
-5.22049e-06
-5.26614e-06
-5.31442e-06
-5.36061e-06
-5.40944e-06
-5.45857e-06
-5.50556e-06
-5.55524e-06
-5.6052e-06
-5.65546e-06
-5.70601e-06
-5.75437e-06
-5.80796e-06
-5.85937e-06
-5.91108e-06
-5.96308e-06
-6.01537e-06
-6.06795e-06
-6.12336e-06
-6.17655e-06
-6.2326e-06
-6.28639e-06
-6.34307e-06
-6.39747e-06
-6.45478e-06
-6.5098e-06
-6.57036e-06
-6.62601e-06
-6.68461e-06
-6.74353e-06
-6.80278e-06
-6.86237e-06
-6.92228e-06
-6.98253e-06
-7.0431e-06
-7.10673e-06
-7.16799e-06
-7.22959e-06
-7.29427e-06
-7.35655e-06
-7.42194e-06
-7.4877e-06
-7.55103e-06
-7.6175e-06
-7.68153e-06
-7.75155e-06
-7.81629e-06
-7.88707e-06
-7.95253e-06
-8.02407e-06
-8.09314e-06
-8.15968e-06
-8.23529e-06
-8.30258e-06
-8.37607e-06
-8.44997e-06
-8.52132e-06
-8.59305e-06
-8.66813e-06
-8.74362e-06
-8.81952e-06
-8.89584e-06
-8.96954e-06
-9.0497e-06
-9.1242e-06
-9.2052e-06
-9.28359e-06
-9.36238e-06
-9.44469e-06
-9.52123e-06
-9.60752e-06
-9.68802e-06
-9.76895e-06
-9.85345e-06
-9.9384e-06
-1.00206e-05
-1.01097e-05
-1.01928e-05
-1.02827e-05
-1.03667e-05
-1.04576e-05
-1.05458e-05
-1.06344e-05
-1.07235e-05
-1.08163e-05
-1.09096e-05
-1.10001e-05
-1.10943e-05
-1.11858e-05
-1.1281e-05
-1.13802e-05
-1.14731e-05
-1.15698e-05
-1.16671e-05
-1.17648e-05
-1.18665e-05
-1.19653e-05
-1.20646e-05
-1.21679e-05
-1.22717e-05
-1.23725e-05
-1.24774e-05
-1.25793e-05
-1.26888e-05
-1.27917e-05
-1.29023e-05
-1.30063e-05
-1.3118e-05
-1.32267e-05
-1.3336e-05
-1.34494e-05
-1.35634e-05
-1.36744e-05
-1.37859e-05
-1.39053e-05
-1.40179e-05
-1.41385e-05
-1.42523e-05
-1.43704e-05
-1.44929e-05
-1.46122e-05
-1.47321e-05
-1.48564e-05
-1.49775e-05
-1.51031e-05
-1.52254e-05
-1.5356e-05
-1.54797e-05
-1.56077e-05
-1.57403e-05
-1.58658e-05
-1.59997e-05
-1.61304e-05
-1.62656e-05
-1.63976e-05
-1.65302e-05
-1.66714e-05
-1.68054e-05
-1.69441e-05
-1.70834e-05
-1.72234e-05
-1.73641e-05
-1.75096e-05
-1.76517e-05
-1.77945e-05
-1.79421e-05
-1.80905e-05
-1.82354e-05
-1.83852e-05
-1.85399e-05
-1.8687e-05
-1.88391e-05
-1.8996e-05
-1.91495e-05
-1.93038e-05
-1.94631e-05
-1.96231e-05
-1.97797e-05
-1.99413e-05
-2.01036e-05
-2.02668e-05
-2.04351e-05
-2.05955e-05
-2.07654e-05
-2.09362e-05
-2.11034e-05
-2.12758e-05
-2.14446e-05
-2.1623e-05
-2.17935e-05
-2.19737e-05
-2.21503e-05
-2.23277e-05
-2.2506e-05
-2.26942e-05
-2.28697e-05
-2.30596e-05
-2.32459e-05
-2.34148e-05
-2.36304e-05
-2.3801e-05
-2.40186e-05
-2.4191e-05
-2.4364e-05
-2.45845e-05
-2.48062e-05
-2.4982e-05
-2.51586e-05
-2.53832e-05
-2.5609e-05
-2.57883e-05
-2.60161e-05
-2.61971e-05
-2.63789e-05
-2.66579e-05
-2.68418e-05
-2.70263e-05
-2.72603e-05
-2.74955e-05
-2.77319e-05
-2.79203e-05
-2.81587e-05
-2.83489e-05
-2.85894e-05
-2.88311e-05
-2.90741e-05
-2.9268e-05
-2.9513e-05
-2.97593e-05
-3.00067e-05
-3.02045e-05
-3.0454e-05
-3.07047e-05
-3.09566e-05
-3.12097e-05
-3.14641e-05
-3.16678e-05
-3.19242e-05
-3.2234e-05
-3.24409e-05
-3.27009e-05
-3.29622e-05
-3.32247e-05
-3.34884e-05
-3.37534e-05
-3.39662e-05
-3.42867e-05
-3.45553e-05
-3.48251e-05
-3.50961e-05
-3.53684e-05
-3.56418e-05
-3.5971e-05
-3.61926e-05
-3.65246e-05
-3.67483e-05
-3.70831e-05
-3.73642e-05
-3.76466e-05
-3.79302e-05
-3.82709e-05
-3.85013e-05
-3.88448e-05
-3.919e-05
-3.94239e-05
-3.9772e-05
-4.00649e-05
-4.04161e-05
-4.06545e-05
-4.10086e-05
-4.13644e-05
-4.16641e-05
-4.19651e-05
-4.23255e-05
-4.26293e-05
-4.29343e-05
-4.32993e-05
-4.3666e-05
-4.39754e-05
-4.42861e-05
-4.46574e-05
-4.50305e-05
-4.53456e-05
-4.57219e-05
-4.60398e-05
-4.64193e-05
-4.68005e-05
-4.71229e-05
-4.75073e-05
-4.78325e-05
-4.82201e-05
-4.86095e-05
-4.90007e-05
-4.93319e-05
-4.97883e-05
-5.01227e-05
-5.04583e-05
-5.09202e-05
-5.1259e-05
-5.17248e-05
-5.20669e-05
-5.24734e-05
-5.28817e-05
-5.32918e-05
-5.37037e-05
-5.41174e-05
-5.44686e-05
-5.49499e-05
-5.53689e-05
-5.57898e-05
-5.62124e-05
-5.66368e-05
-5.7063e-05
-5.7491e-05
-5.79865e-05
-5.83526e-05
-5.88521e-05
-5.92876e-05
-5.9725e-05
-6.01641e-05
-6.06719e-05
-6.1115e-05
-6.15599e-05
-6.2074e-05
-6.25229e-05
-6.29735e-05
-6.3426e-05
-6.39484e-05
-6.44733e-05
-6.49319e-05
-6.53923e-05
-6.59234e-05
-6.63878e-05
-6.69233e-05
-6.73917e-05
-6.79316e-05
-6.84739e-05
-6.89483e-05
-6.9495e-05
-6.99734e-05
-7.05244e-05
-7.10778e-05
-7.16336e-05
-7.21203e-05
-7.26804e-05
-7.32429e-05
-7.38078e-05
-7.43029e-05
-7.48721e-05
-7.55163e-05
-7.60179e-05
-7.65943e-05
-7.7173e-05
-7.77541e-05
-7.83376e-05
-7.89235e-05
-7.95117e-05
-8.01023e-05
-8.06953e-05
-8.12907e-05
-8.18884e-05
-8.25635e-05
-8.31664e-05
-8.37716e-05
-8.43792e-05
-8.49892e-05
-8.56776e-05
-8.62927e-05
-8.69866e-05
-8.75302e-05
-8.82293e-05
-8.89313e-05
-8.9559e-05
-9.01891e-05
-9.08993e-05
-9.16124e-05
-9.22504e-05
-9.28907e-05
-9.36119e-05
-9.43361e-05
-9.49843e-05
-9.57932e-05
-9.63675e-05
-9.71823e-05
-9.78411e-05
-9.85822e-05
-9.93263e-05
-9.99929e-05
-0.000100823
-0.000101495
-0.000102332
-0.000103009
-0.000103771
-0.000104535
-0.000105302
-0.000106155
-0.000106846
-0.000107622
-0.000108484
-0.000109266
-0.000110052
-0.00011084
-0.000111715
-0.000112425
-0.000113306
-0.000114191
-0.000114995
-0.000115801
-0.000116611
-0.000117508
-0.00011841
-0.000119229
-0.000120136
-0.000120961
-0.000121876
-0.000122794
-0.000123628
-0.000124553
-0.000125394
-0.000126412
-0.00012726
-0.000128198
-0.000129139
-0.000130084
-0.000131033
-0.000131985
-0.000132851
-0.000133899
-0.000134862
-0.000135827
-0.000136797
-0.00013786
-0.000138746
-0.000139816
-0.0001408
-0.000141787
-0.000142868
-0.000143862
-0.00014486
-0.000145953
-0.00014705
-0.000148058
-0.00014907
-0.000150178
-0.00015129
-0.000152313
-0.000153433
-0.000154557
-0.00015559
-0.000156816
-0.000157857
-0.000158996
-0.000160139
-0.000161191
-0.000162437
-0.000163592
-0.000164751
-0.000165914
-0.00016708
-0.000168347
-0.000169425
-0.0001707
-0.000171883
-0.000173167
-0.000174357
-0.000175551
-0.000176848
-0.00017805
-0.000179256
-0.000180664
-0.000181878
-0.000183097
-0.000184418
-0.000185744
-0.000187074
-0.000188409
-0.000189647
-0.00019099
-0.000192438
-0.000193689
-0.000195044
-0.000196506
-0.000197768
-0.000199239
-0.000200509
-0.000201988
-0.000203472
-0.000204755
-0.000206248
-0.000207746
-0.000209144
-0.000210547
-0.000212058
-0.000213573
-0.000214989
-0.000216513
-0.000217937
-0.00021947
-0.000221113
-0.00022255
-0.000224097
-0.000225648
-0.000227204
-0.000228765
-0.000230329
-0.000231898
-0.000233472
-0.000235157
-0.00023674
-0.000238326
-0.000240026
-0.000241621
-0.00024333
-0.000244935
-0.000246653
-0.000248266
-0.000249993
-0.000251724
-0.00025335
-0.000255201
-0.000256836
-0.000258696
-0.00026034
-0.000262098
-0.000263861
-0.00026574
-0.000267512
-0.000269289
-0.00027107
-0.000272967
-0.000274757
-0.00027655
-0.000278575
-0.000280264
-0.000282184
-0.000284108
-0.000286037
-0.000287971
-0.000289794
-0.000291736
-0.000293683
-0.000295749
-0.000297588
-0.000299547
-0.000301627
-0.000303594
-0.000305566
-0.000307658
-0.000309638
-0.000311621
-0.000313726
-0.000315835
-0.00031783
-0.000319947
-0.000322068
-0.000324075
-0.000326322
-0.000328336
-0.000330591
-0.000332613
-0.000334876
-0.000337023
-0.000339174
-0.000341329
-0.000343607
-0.000345768
-0.000348054
-0.000350222
-0.000352514
-0.00035481
-0.000357109
-0.000359289
-0.000361594
-0.000364025
-0.000366214
-0.000368528
-0.000370968
-0.000373165
-0.00037561
-0.000378059
-0.000380386
-0.000382716
-0.000385172
-0.000387631
-0.000389968
-0.000392431
-0.000394896
-0.000397364
-0.000399708
-0.000402304
-0.000404777
-0.000407252
-0.000409853
-0.000412331
-0.00041481
-0.000417416
-0.000419897
-0.000422506
-0.000424988
-0.000427726
-0.00043021
-0.000432822
-0.000435434
-0.000438047
-0.000440787
-0.000443401
-0.000445885
-0.000448755
-0.000451367
-0.000453979
-0.000456719
-0.000459459
-0.000462068
-0.000464806
-0.000467672
-0.000470278
-0.000473011
-0.000475873
-0.000478474
-0.000481332
-0.000484189
-0.000486913
-0.000489765
-0.000492485
-0.000495331
-0.000498175
-0.000500885
-0.000503854
-0.000506688
-0.000509518
-0.000512345
-0.000515299
-0.000518117
-0.00052093
-0.000523871
-0.000526807
-0.000529737
-0.000532531
-0.000535583
-0.000538364
-0.000541405
-0.000544307
-0.000547202
-0.00055009
-0.000553105
-0.000556112
-0.000558978
-0.00056197
-0.000564954
-0.000567929
-0.000570896
-0.000573854
-0.000576803
-0.000579876
-0.000582806
-0.000585859
-0.000588768
-0.0005918
-0.000594821
-0.000597831
-0.000600695
-0.000603815
-0.000606789
-0.000609884
-0.000612697
-0.000615899
-0.000618819
-0.000621725
-0.000624885
-0.00062776
-0.000630755
-0.000633867
)
;
    }
    OUTLET
    {
        type            cyclic;
        value           nonuniform List<scalar> 
1025
(
5.53186e-09
1.66877e-08
2.79849e-08
3.94126e-08
5.09499e-08
6.25499e-08
7.41199e-08
8.54926e-08
9.64315e-08
1.06668e-07
1.16024e-07
1.24412e-07
1.31878e-07
1.38513e-07
1.44433e-07
1.49752e-07
1.54583e-07
1.59012e-07
1.63109e-07
1.6694e-07
1.70541e-07
1.73966e-07
1.77234e-07
1.80377e-07
1.83408e-07
1.8635e-07
1.89192e-07
1.92006e-07
1.94714e-07
1.97413e-07
2.00065e-07
2.02631e-07
2.05252e-07
2.07797e-07
2.10315e-07
2.12809e-07
2.15282e-07
2.17786e-07
2.20274e-07
2.22702e-07
2.25167e-07
2.27623e-07
2.30073e-07
2.32517e-07
2.34957e-07
2.37444e-07
2.39879e-07
2.42314e-07
2.44801e-07
2.47289e-07
2.49781e-07
2.52224e-07
2.54775e-07
2.57228e-07
2.59791e-07
2.62361e-07
2.64886e-07
2.67419e-07
2.70014e-07
2.72618e-07
2.75233e-07
2.77858e-07
2.80494e-07
2.83142e-07
2.85856e-07
2.88529e-07
2.9127e-07
2.93969e-07
2.96794e-07
2.99521e-07
3.02376e-07
3.05134e-07
3.08021e-07
3.10924e-07
3.13729e-07
3.16724e-07
3.19622e-07
3.22653e-07
3.25586e-07
3.28655e-07
3.31626e-07
3.34793e-07
3.37802e-07
3.4101e-07
3.4412e-07
3.4731e-07
3.50522e-07
3.53756e-07
3.57073e-07
3.60351e-07
3.63652e-07
3.67038e-07
3.70447e-07
3.73881e-07
3.77339e-07
3.80885e-07
3.8433e-07
3.87927e-07
3.9155e-07
3.95134e-07
3.9881e-07
4.02512e-07
4.06308e-07
4.1e-07
4.13917e-07
4.17664e-07
4.21572e-07
4.25577e-07
4.29477e-07
4.33474e-07
4.37569e-07
4.41558e-07
4.45783e-07
4.49903e-07
4.54123e-07
4.58375e-07
4.62659e-07
4.66976e-07
4.71397e-07
4.7578e-07
4.80269e-07
4.84792e-07
4.89349e-07
4.93942e-07
4.98643e-07
5.03307e-07
5.08008e-07
5.12817e-07
5.17738e-07
5.22549e-07
5.27472e-07
5.32507e-07
5.37582e-07
5.42621e-07
5.47774e-07
5.52968e-07
5.58202e-07
5.63554e-07
5.6887e-07
5.74305e-07
5.79704e-07
5.85302e-07
5.90865e-07
5.96471e-07
6.02201e-07
6.07895e-07
6.13713e-07
6.19577e-07
6.25568e-07
6.31442e-07
6.37525e-07
6.43656e-07
6.49835e-07
6.56062e-07
6.62337e-07
6.6866e-07
6.75117e-07
6.81539e-07
6.88182e-07
6.94704e-07
7.01449e-07
7.08247e-07
7.1501e-07
7.21825e-07
7.28868e-07
7.35878e-07
7.42941e-07
7.50148e-07
7.57411e-07
7.64279e-07
7.72012e-07
7.80351e-07
7.86934e-07
7.94478e-07
8.0208e-07
8.10666e-07
8.17461e-07
8.26172e-07
8.34015e-07
8.41916e-07
8.49876e-07
8.57896e-07
8.66934e-07
8.75082e-07
8.8329e-07
8.92532e-07
9.0087e-07
9.09269e-07
9.17729e-07
9.27243e-07
9.36833e-07
9.44494e-07
9.55225e-07
9.6301e-07
9.73897e-07
9.81807e-07
9.92849e-07
1.00088e-06
1.01208e-06
1.02129e-06
1.03056e-06
1.04095e-06
1.05142e-06
1.06197e-06
1.07153e-06
1.08223e-06