/*--------------------------------*- C++ -*----------------------------------*\
| =========                 |                                                 |
| \\      /  F ield         | OpenFOAM: The Open Source CFD Toolbox           |
|  \\    /   O peration     | Version:  v1806                                 |
|   \\  /    A nd           | Web:      www.OpenFOAM.com                      |
|    \\/     M anipulation  |                                                 |
\*---------------------------------------------------------------------------*/
FoamFile
{
    version     2.0;
    format      ascii;
    class       volVectorField;
    location    "10000";
    object      PointsC;
}
// * * * * * * * * * * * * * * * * * * * * * * * * * * * * * * * * * * * * * //

dimensions      [0 1 0 0 0 0 0];


internalField   nonuniform List<vector> 
1025
(
(0.05 1.92643e-05 0.05)
(0.05 5.78835e-05 0.05)
(0.05 9.66847e-05 0.05)
(0.05 0.000135668 0.05)
(0.05 0.000174835 0.05)
(0.05 0.000214187 0.05)
(0.05 0.000253724 0.05)
(0.05 0.000293447 0.05)
(0.05 0.000333357 0.05)
(0.05 0.000373455 0.05)
(0.05 0.000413741 0.05)
(0.05 0.000454217 0.05)
(0.05 0.000494884 0.05)
(0.05 0.000535742 0.05)
(0.05 0.000576792 0.05)
(0.05 0.000618036 0.05)
(0.05 0.000659474 0.05)
(0.05 0.000701107 0.05)
(0.05 0.000742935 0.05)
(0.05 0.000784961 0.05)
(0.05 0.000827185 0.05)
(0.05 0.000869607 0.05)
(0.05 0.000912229 0.05)
(0.05 0.000955052 0.05)
(0.05 0.000998077 0.05)
(0.05 0.00104131 0.05)
(0.05 0.00108474 0.05)
(0.05 0.00112837 0.05)
(0.05 0.00117221 0.05)
(0.05 0.00121625 0.05)
(0.05 0.00126051 0.05)
(0.05 0.00130497 0.05)
(0.05 0.00134964 0.05)
(0.05 0.00139452 0.05)
(0.05 0.00143962 0.05)
(0.05 0.00148493 0.05)
(0.05 0.00153044 0.05)
(0.05 0.00157617 0.05)
(0.05 0.00162212 0.05)
(0.05 0.00166829 0.05)
(0.05 0.00171466 0.05)
(0.05 0.00176126 0.05)
(0.05 0.00180809 0.05)
(0.05 0.00185513 0.05)
(0.05 0.00190239 0.05)
(0.05 0.00194987 0.05)
(0.05 0.00199758 0.05)
(0.05 0.00204551 0.05)
(0.05 0.00209366 0.05)
(0.05 0.00214205 0.05)
(0.05 0.00219067 0.05)
(0.05 0.00223951 0.05)
(0.05 0.00228857 0.05)
(0.05 0.00233788 0.05)
(0.05 0.0023874 0.05)
(0.05 0.00243717 0.05)
(0.05 0.00248718 0.05)
(0.05 0.00253741 0.05)
(0.05 0.00258788 0.05)
(0.05 0.0026386 0.05)
(0.05 0.00268955 0.05)
(0.05 0.00274074 0.05)
(0.05 0.00279217 0.05)
(0.05 0.00284383 0.05)
(0.05 0.00289575 0.05)
(0.05 0.00294791 0.05)
(0.05 0.00300031 0.05)
(0.05 0.00305297 0.05)
(0.05 0.00310587 0.05)
(0.05 0.00315901 0.05)
(0.05 0.00321241 0.05)
(0.05 0.00326606 0.05)
(0.05 0.00331996 0.05)
(0.05 0.00337412 0.05)
(0.05 0.00342853 0.05)
(0.05 0.0034832 0.05)
(0.05 0.00353813 0.05)
(0.05 0.00359331 0.05)
(0.05 0.00364875 0.05)
(0.05 0.00370446 0.05)
(0.05 0.00376042 0.05)
(0.05 0.00381665 0.05)
(0.05 0.00387315 0.05)
(0.05 0.00392991 0.05)
(0.05 0.00398694 0.05)
(0.05 0.00404423 0.05)
(0.05 0.0041018 0.05)
(0.05 0.00415964 0.05)
(0.05 0.00421774 0.05)
(0.05 0.00427613 0.05)
(0.05 0.00433478 0.05)
(0.05 0.00439371 0.05)
(0.05 0.00445292 0.05)
(0.05 0.00451241 0.05)
(0.05 0.00457219 0.05)
(0.05 0.00463224 0.05)
(0.05 0.00469257 0.05)
(0.05 0.00475319 0.05)
(0.05 0.00481409 0.05)
(0.05 0.00487529 0.05)
(0.05 0.00493676 0.05)
(0.05 0.00499853 0.05)
(0.05 0.00506059 0.05)
(0.05 0.00512293 0.05)
(0.05 0.00518558 0.05)
(0.05 0.00524852 0.05)
(0.05 0.00531175 0.05)
(0.05 0.00537529 0.05)
(0.05 0.00543912 0.05)
(0.05 0.00550325 0.05)
(0.05 0.00556768 0.05)
(0.05 0.00563242 0.05)
(0.05 0.00569746 0.05)
(0.05 0.00576281 0.05)
(0.05 0.00582847 0.05)
(0.05 0.00589443 0.05)
(0.05 0.0059607 0.05)
(0.05 0.00602729 0.05)
(0.05 0.00609419 0.05)
(0.05 0.0061614 0.05)
(0.05 0.00622893 0.05)
(0.05 0.00629679 0.05)
(0.05 0.00636496 0.05)
(0.05 0.00643344 0.05)
(0.05 0.00650226 0.05)
(0.05 0.0065714 0.05)
(0.05 0.00664086 0.05)
(0.05 0.00671065 0.05)
(0.05 0.00678077 0.05)
(0.05 0.00685121 0.05)
(0.05 0.00692199 0.05)
(0.05 0.0069931 0.05)
(0.05 0.00706455 0.05)
(0.05 0.00713633 0.05)
(0.05 0.00720845 0.05)
(0.05 0.00728092 0.05)
(0.05 0.00735372 0.05)
(0.05 0.00742686 0.05)
(0.05 0.00750035 0.05)
(0.05 0.00757418 0.05)
(0.05 0.00764836 0.05)
(0.05 0.0077229 0.05)
(0.05 0.00779778 0.05)
(0.05 0.00787302 0.05)
(0.05 0.00794861 0.05)
(0.05 0.00802455 0.05)
(0.05 0.00810085 0.05)
(0.05 0.00817751 0.05)
(0.05 0.00825454 0.05)
(0.05 0.00833192 0.05)
(0.05 0.00840966 0.05)
(0.05 0.00848778 0.05)
(0.05 0.00856626 0.05)
(0.05 0.00864512 0.05)
(0.05 0.00872434 0.05)
(0.05 0.00880394 0.05)
(0.05 0.00888391 0.05)
(0.05 0.00896425 0.05)
(0.05 0.00904498 0.05)
(0.05 0.00912609 0.05)
(0.05 0.00920757 0.05)
(0.05 0.00928945 0.05)
(0.05 0.0093717 0.05)
(0.05 0.00945434 0.05)
(0.05 0.00953737 0.05)
(0.05 0.0096208 0.05)
(0.05 0.00970461 0.05)
(0.05 0.00978882 0.05)
(0.05 0.00987343 0.05)
(0.05 0.00995842 0.05)
(0.05 0.0100438 0.05)
(0.05 0.0101296 0.05)
(0.05 0.0102159 0.05)
(0.05 0.0103025 0.05)
(0.05 0.0103895 0.05)
(0.05 0.0104769 0.05)
(0.05 0.0105648 0.05)
(0.05 0.010653 0.05)
(0.05 0.0107417 0.05)
(0.05 0.0108308 0.05)
(0.05 0.0109203 0.05)
(0.05 0.0110102 0.05)
(0.05 0.0111006 0.05)
(0.05 0.0111914 0.05)
(0.05 0.0112826 0.05)
(0.05 0.0113742 0.05)
(0.05 0.0114664 0.05)
(0.05 0.0115589 0.05)
(0.05 0.0116517 0.05)
(0.05 0.0117451 0.05)
(0.05 0.0118389 0.05)
(0.05 0.0119332 0.05)
(0.05 0.0120279 0.05)
(0.05 0.012123 0.05)
(0.05 0.0122187 0.05)
(0.05 0.0123147 0.05)
(0.05 0.0124112 0.05)
(0.05 0.0125082 0.05)
(0.05 0.0126055 0.05)
(0.05 0.0127034 0.05)
(0.05 0.0128017 0.05)
(0.05 0.0129005 0.05)
(0.05 0.0129997 0.05)
(0.05 0.0130995 0.05)
(0.05 0.0131997 0.05)
(0.05 0.0133003 0.05)
(0.05 0.0134015 0.05)
(0.05 0.0135031 0.05)
(0.05 0.0136052 0.05)
(0.05 0.0137078 0.05)
(0.05 0.0138108 0.05)
(0.05 0.0139144 0.05)
(0.05 0.0140184 0.05)
(0.05 0.0141229 0.05)
(0.05 0.014228 0.05)
(0.05 0.0143334 0.05)
(0.05 0.0144394 0.05)
(0.05 0.0145459 0.05)
(0.05 0.0146529 0.05)
(0.05 0.0147604 0.05)
(0.05 0.0148684 0.05)
(0.05 0.0149769 0.05)
(0.05 0.0150859 0.05)
(0.05 0.0151955 0.05)
(0.05 0.0153055 0.05)
(0.05 0.0154161 0.05)
(0.05 0.0155272 0.05)
(0.05 0.0156389 0.05)
(0.05 0.015751 0.05)
(0.05 0.0158637 0.05)
(0.05 0.0159769 0.05)
(0.05 0.0160906 0.05)
(0.05 0.0162049 0.05)
(0.05 0.0163198 0.05)
(0.05 0.0164351 0.05)
(0.05 0.0165509 0.05)
(0.05 0.0166673 0.05)
(0.05 0.0167843 0.05)
(0.05 0.0169019 0.05)
(0.05 0.01702 0.05)
(0.05 0.0171386 0.05)
(0.05 0.0172579 0.05)
(0.05 0.0173776 0.05)
(0.05 0.017498 0.05)
(0.05 0.0176188 0.05)
(0.05 0.0177403 0.05)
(0.05 0.0178623 0.05)
(0.05 0.0179849 0.05)
(0.05 0.0181081 0.05)
(0.05 0.0182319 0.05)
(0.05 0.0183562 0.05)
(0.05 0.0184812 0.05)
(0.05 0.0186067 0.05)
(0.05 0.0187328 0.05)
(0.05 0.0188596 0.05)
(0.05 0.0189869 0.05)
(0.05 0.0191148 0.05)
(0.05 0.0192433 0.05)
(0.05 0.0193724 0.05)
(0.05 0.0195021 0.05)
(0.05 0.0196324 0.05)
(0.05 0.0197633 0.05)
(0.05 0.019895 0.05)
(0.05 0.0200272 0.05)
(0.05 0.0201599 0.05)
(0.05 0.0202933 0.05)
(0.05 0.0204274 0.05)
(0.05 0.0205621 0.05)
(0.05 0.0206974 0.05)
(0.05 0.0208334 0.05)
(0.05 0.0209699 0.05)
(0.05 0.0211072 0.05)
(0.05 0.0212451 0.05)
(0.05 0.0213836 0.05)
(0.05 0.0215228 0.05)
(0.05 0.0216626 0.05)
(0.05 0.0218031 0.05)
(0.05 0.0219442 0.05)
(0.05 0.0220861 0.05)
(0.05 0.0222286 0.05)
(0.05 0.0223717 0.05)
(0.05 0.0225156 0.05)
(0.05 0.0226602 0.05)
(0.05 0.0228053 0.05)
(0.05 0.0229512 0.05)
(0.05 0.0230978 0.05)
(0.05 0.023245 0.05)
(0.05 0.023393 0.05)
(0.05 0.0235416 0.05)
(0.05 0.0236909 0.05)
(0.05 0.023841 0.05)
(0.05 0.0239917 0.05)
(0.05 0.0241432 0.05)
(0.05 0.0242954 0.05)
(0.05 0.0244483 0.05)
(0.05 0.0246019 0.05)
(0.05 0.0247562 0.05)
(0.05 0.0249113 0.05)
(0.05 0.0250671 0.05)
(0.05 0.0252237 0.05)
(0.05 0.0253809 0.05)
(0.05 0.0255389 0.05)
(0.05 0.0256977 0.05)
(0.05 0.0258571 0.05)
(0.05 0.0260174 0.05)
(0.05 0.0261784 0.05)
(0.05 0.0263402 0.05)
(0.05 0.0265026 0.05)
(0.05 0.0266659 0.05)
(0.05 0.02683 0.05)
(0.05 0.0269948 0.05)
(0.05 0.0271604 0.05)
(0.05 0.0273268 0.05)
(0.05 0.0274939 0.05)
(0.05 0.0276619 0.05)
(0.05 0.0278306 0.05)
(0.05 0.0280001 0.05)
(0.05 0.0281705 0.05)
(0.05 0.0283416 0.05)
(0.05 0.0285136 0.05)
(0.05 0.0286863 0.05)
(0.05 0.0288599 0.05)
(0.05 0.0290343 0.05)
(0.05 0.0292095 0.05)
(0.05 0.0293855 0.05)
(0.05 0.0295623 0.05)
(0.05 0.02974 0.05)
(0.05 0.0299185 0.05)
(0.05 0.0300979 0.05)
(0.05 0.0302781 0.05)
(0.05 0.0304592 0.05)
(0.05 0.0306411 0.05)
(0.05 0.0308239 0.05)
(0.05 0.0310075 0.05)
(0.05 0.0311919 0.05)
(0.05 0.0313773 0.05)
(0.05 0.0315635 0.05)
(0.05 0.0317507 0.05)
(0.05 0.0319387 0.05)
(0.05 0.0321275 0.05)
(0.05 0.0323173 0.05)
(0.05 0.0325079 0.05)
(0.05 0.0326995 0.05)
(0.05 0.032892 0.05)
(0.05 0.0330853 0.05)
(0.05 0.0332795 0.05)
(0.05 0.0334748 0.05)
(0.05 0.0336708 0.05)
(0.05 0.0338679 0.05)
(0.05 0.0340658 0.05)
(0.05 0.0342647 0.05)
(0.05 0.0344645 0.05)
(0.05 0.0346653 0.05)
(0.05 0.034867 0.05)
(0.05 0.0350697 0.05)
(0.05 0.0352732 0.05)
(0.05 0.0354778 0.05)
(0.05 0.0356834 0.05)
(0.05 0.0358899 0.05)
(0.05 0.0360974 0.05)
(0.05 0.0363058 0.05)
(0.05 0.0365152 0.05)
(0.05 0.0367256 0.05)
(0.05 0.036937 0.05)
(0.05 0.0371495 0.05)
(0.05 0.0373629 0.05)
(0.05 0.0375773 0.05)
(0.05 0.0377927 0.05)
(0.05 0.0380091 0.05)
(0.05 0.0382265 0.05)
(0.05 0.038445 0.05)
(0.05 0.0386645 0.05)
(0.05 0.0388851 0.05)
(0.05 0.0391066 0.05)
(0.05 0.0393292 0.05)
(0.05 0.0395529 0.05)
(0.05 0.0397776 0.05)
(0.05 0.0400034 0.05)
(0.05 0.0402302 0.05)
(0.05 0.0404581 0.05)
(0.05 0.0406871 0.05)
(0.05 0.0409171 0.05)
(0.05 0.0411482 0.05)
(0.05 0.0413805 0.05)
(0.05 0.0416138 0.05)
(0.05 0.0418482 0.05)
(0.05 0.0420837 0.05)
(0.05 0.0423204 0.05)
(0.05 0.0425582 0.05)
(0.05 0.042797 0.05)
(0.05 0.0430369 0.05)
(0.05 0.043278 0.05)
(0.05 0.0435203 0.05)
(0.05 0.0437637 0.05)
(0.05 0.0440082 0.05)
(0.05 0.044254 0.05)
(0.05 0.0445008 0.05)
(0.05 0.0447488 0.05)
(0.05 0.0449979 0.05)
(0.05 0.0452483 0.05)
(0.05 0.0454999 0.05)
(0.05 0.0457525 0.05)
(0.05 0.0460065 0.05)
(0.05 0.0462616 0.05)
(0.05 0.0465179 0.05)
(0.05 0.0467754 0.05)
(0.05 0.0470341 0.05)
(0.05 0.047294 0.05)
(0.05 0.0475551 0.05)
(0.05 0.0478175 0.05)
(0.05 0.0480811 0.05)
(0.05 0.0483459 0.05)
(0.05 0.0486121 0.05)
(0.05 0.0488794 0.05)
(0.05 0.049148 0.05)
(0.05 0.0494179 0.05)
(0.05 0.0496891 0.05)
(0.05 0.0499615 0.05)
(0.05 0.0502352 0.05)
(0.05 0.0505102 0.05)
(0.05 0.0507865 0.05)
(0.05 0.0510641 0.05)
(0.05 0.051343 0.05)
(0.05 0.0516233 0.05)
(0.05 0.0519048 0.05)
(0.05 0.0521876 0.05)
(0.05 0.0524718 0.05)
(0.05 0.0527573 0.05)
(0.05 0.0530442 0.05)
(0.05 0.0533324 0.05)
(0.05 0.053622 0.05)
(0.05 0.0539129 0.05)
(0.05 0.0542052 0.05)
(0.05 0.0544989 0.05)
(0.05 0.054794 0.05)
(0.05 0.0550904 0.05)
(0.05 0.0553883 0.05)
(0.05 0.0556876 0.05)
(0.05 0.0559882 0.05)
(0.05 0.0562903 0.05)
(0.05 0.0565938 0.05)
(0.05 0.0568988 0.05)
(0.05 0.0572051 0.05)
(0.05 0.0575129 0.05)
(0.05 0.0578222 0.05)
(0.05 0.0581329 0.05)
(0.05 0.058445 0.05)
(0.05 0.0587587 0.05)
(0.05 0.0590738 0.05)
(0.05 0.0593904 0.05)
(0.05 0.0597085 0.05)
(0.05 0.0600281 0.05)
(0.05 0.0603492 0.05)
(0.05 0.0606718 0.05)
(0.05 0.060996 0.05)
(0.05 0.0613216 0.05)
(0.05 0.0616487 0.05)
(0.05 0.0619774 0.05)
(0.05 0.0623077 0.05)
(0.05 0.0626396 0.05)
(0.05 0.062973 0.05)
(0.05 0.063308 0.05)
(0.05 0.0636445 0.05)
(0.05 0.0639826 0.05)
(0.05 0.0643223 0.05)
(0.05 0.0646636 0.05)
(0.05 0.0650065 0.05)
(0.05 0.0653511 0.05)
(0.05 0.0656972 0.05)
(0.05 0.066045 0.05)
(0.05 0.0663944 0.05)
(0.05 0.0667455 0.05)
(0.05 0.0670982 0.05)
(0.05 0.0674526 0.05)
(0.05 0.0678086 0.05)
(0.05 0.0681664 0.05)
(0.05 0.0685257 0.05)
(0.05 0.0688868 0.05)
(0.05 0.0692497 0.05)
(0.05 0.0696141 0.05)
(0.05 0.0699804 0.05)
(0.05 0.0703483 0.05)
(0.05 0.070718 0.05)
(0.05 0.0710894 0.05)
(0.05 0.0714625 0.05)
(0.05 0.0718375 0.05)
(0.05 0.0722141 0.05)
(0.05 0.0725926 0.05)
(0.05 0.0729728 0.05)
(0.05 0.0733549 0.05)
(0.05 0.0737388 0.05)
(0.05 0.0741243 0.05)
(0.05 0.0745118 0.05)
(0.05 0.0749011 0.05)
(0.05 0.0752922 0.05)
(0.05 0.0756851 0.05)
(0.05 0.0760799 0.05)
(0.05 0.0764766 0.05)
(0.05 0.0768751 0.05)
(0.05 0.0772755 0.05)
(0.05 0.0776778 0.05)
(0.05 0.0780819 0.05)
(0.05 0.0784881 0.05)
(0.05 0.0788961 0.05)
(0.05 0.0793059 0.05)
(0.05 0.0797178 0.05)
(0.05 0.0801316 0.05)
(0.05 0.0805473 0.05)
(0.05 0.080965 0.05)
(0.05 0.0813847 0.05)
(0.05 0.0818063 0.05)
(0.05 0.0822299 0.05)
(0.05 0.0826555 0.05)
(0.05 0.0830831 0.05)
(0.05 0.0835127 0.05)
(0.05 0.0839444 0.05)
(0.05 0.084378 0.05)
(0.05 0.0848137 0.05)
(0.05 0.0852515 0.05)
(0.05 0.0856913 0.05)
(0.05 0.0861332 0.05)
(0.05 0.0865772 0.05)
(0.05 0.0870233 0.05)
(0.05 0.0874715 0.05)
(0.05 0.0879218 0.05)
(0.05 0.0883742 0.05)
(0.05 0.0888287 0.05)
(0.05 0.0892853 0.05)
(0.05 0.0897441 0.05)
(0.05 0.0902052 0.05)
(0.05 0.0906683 0.05)
(0.05 0.0911336 0.05)
(0.05 0.0916011 0.05)
(0.05 0.0920708 0.05)
(0.05 0.0925428 0.05)
(0.05 0.0930169 0.05)
(0.05 0.0934932 0.05)
(0.05 0.0939719 0.05)
(0.05 0.0944528 0.05)
(0.05 0.0949359 0.05)
(0.05 0.0954214 0.05)
(0.05 0.095909 0.05)
(0.05 0.0963991 0.05)
(0.05 0.0968913 0.05)
(0.05 0.097386 0.05)
(0.05 0.0978829 0.05)
(0.05 0.0983822 0.05)
(0.05 0.0988838 0.05)
(0.05 0.0993879 0.05)
(0.05 0.0998942 0.05)
(0.05 0.100403 0.05)
(0.05 0.100914 0.05)
(0.05 0.101427 0.05)
(0.05 0.101944 0.05)
(0.05 0.102462 0.05)
(0.05 0.102983 0.05)
(0.05 0.103506 0.05)
(0.05 0.104032 0.05)
(0.05 0.10456 0.05)
(0.05 0.105091 0.05)
(0.05 0.105624 0.05)
(0.05 0.106159 0.05)
(0.05 0.106698 0.05)
(0.05 0.107239 0.05)
(0.05 0.107782 0.05)
(0.05 0.108329 0.05)
(0.05 0.108877 0.05)
(0.05 0.109427 0.05)
(0.05 0.109981 0.05)
(0.05 0.110537 0.05)
(0.05 0.111096 0.05)
(0.05 0.111658 0.05)
(0.05 0.112222 0.05)
(0.05 0.112789 0.05)
(0.05 0.113358 0.05)
(0.05 0.11393 0.05)
(0.05 0.114505 0.05)
(0.05 0.115082 0.05)
(0.05 0.115663 0.05)
(0.05 0.116246 0.05)
(0.05 0.116832 0.05)
(0.05 0.11742 0.05)
(0.05 0.118011 0.05)
(0.05 0.118605 0.05)
(0.05 0.119202 0.05)
(0.05 0.119802 0.05)
(0.05 0.120404 0.05)
(0.05 0.121009 0.05)
(0.05 0.121618 0.05)
(0.05 0.122229 0.05)
(0.05 0.122842 0.05)
(0.05 0.123459 0.05)
(0.05 0.124079 0.05)
(0.05 0.124702 0.05)
(0.05 0.125327 0.05)
(0.05 0.125956 0.05)
(0.05 0.126587 0.05)
(0.05 0.127222 0.05)
(0.05 0.127859 0.05)
(0.05 0.128499 0.05)
(0.05 0.129142 0.05)
(0.05 0.129789 0.05)
(0.05 0.130438 0.05)
(0.05 0.131091 0.05)
(0.05 0.131746 0.05)
(0.05 0.132405 0.05)
(0.05 0.133068 0.05)
(0.05 0.133732 0.05)
(0.05 0.1344 0.05)
(0.05 0.135071 0.05)
(0.05 0.135746 0.05)
(0.05 0.136424 0.05)
(0.05 0.137104 0.05)
(0.05 0.137788 0.05)
(0.05 0.138475 0.05)
(0.05 0.139165 0.05)
(0.05 0.139859 0.05)
(0.05 0.140556 0.05)
(0.05 0.141256 0.05)
(0.05 0.14196 0.05)
(0.05 0.142667 0.05)
(0.05 0.143377 0.05)
(0.05 0.144089 0.05)
(0.05 0.144806 0.05)
(0.05 0.145527 0.05)
(0.05 0.14625 0.05)
(0.05 0.146978 0.05)
(0.05 0.147708 0.05)
(0.05 0.148442 0.05)
(0.05 0.149178 0.05)
(0.05 0.149919 0.05)
(0.05 0.150664 0.05)
(0.05 0.151412 0.05)
(0.05 0.152163 0.05)
(0.05 0.152918 0.05)
(0.05 0.153676 0.05)
(0.05 0.154438 0.05)
(0.05 0.155203 0.05)
(0.05 0.155973 0.05)
(0.05 0.156745 0.05)
(0.05 0.157522 0.05)
(0.05 0.158302 0.05)
(0.05 0.159086 0.05)
(0.05 0.159873 0.05)
(0.05 0.160663 0.05)
(0.05 0.161459 0.05)
(0.05 0.162257 0.05)
(0.05 0.163059 0.05)
(0.05 0.163866 0.05)
(0.05 0.164675 0.05)
(0.05 0.165489 0.05)
(0.05 0.166306 0.05)
(0.05 0.167128 0.05)
(0.05 0.167953 0.05)
(0.05 0.168783 0.05)
(0.05 0.169615 0.05)
(0.05 0.170453 0.05)
(0.05 0.171293 0.05)
(0.05 0.172138 0.05)
(0.05 0.172987 0.05)
(0.05 0.17384 0.05)
(0.05 0.174696 0.05)
(0.05 0.175557 0.05)
(0.05 0.176422 0.05)
(0.05 0.177292 0.05)
(0.05 0.178164 0.05)
(0.05 0.179041 0.05)
(0.05 0.179923 0.05)
(0.05 0.180809 0.05)
(0.05 0.181698 0.05)
(0.05 0.182592 0.05)
(0.05 0.18349 0.05)
(0.05 0.184392 0.05)
(0.05 0.185299 0.05)
(0.05 0.186209 0.05)
(0.05 0.187124 0.05)
(0.05 0.188044 0.05)
(0.05 0.188968 0.05)
(0.05 0.189896 0.05)
(0.05 0.190828 0.05)
(0.05 0.191764 0.05)
(0.05 0.192706 0.05)
(0.05 0.193652 0.05)
(0.05 0.194602 0.05)
(0.05 0.195557 0.05)
(0.05 0.196516 0.05)
(0.05 0.197479 0.05)
(0.05 0.198447 0.05)
(0.05 0.199419 0.05)
(0.05 0.200397 0.05)
(0.05 0.201379 0.05)
(0.05 0.202366 0.05)
(0.05 0.203357 0.05)
(0.05 0.204352 0.05)
(0.05 0.205352 0.05)
(0.05 0.206358 0.05)
(0.05 0.207368 0.05)
(0.05 0.208383 0.05)
(0.05 0.209402 0.05)
(0.05 0.210426 0.05)
(0.05 0.211455 0.05)
(0.05 0.212489 0.05)
(0.05 0.213528 0.05)
(0.05 0.214572 0.05)
(0.05 0.21562 0.05)
(0.05 0.216674 0.05)
(0.05 0.217733 0.05)
(0.05 0.218796 0.05)
(0.05 0.219865 0.05)
(0.05 0.220938 0.05)
(0.05 0.222017 0.05)
(0.05 0.2231 0.05)
(0.05 0.224188 0.05)
(0.05 0.225282 0.05)
(0.05 0.226381 0.05)
(0.05 0.227485 0.05)
(0.05 0.228595 0.05)
(0.05 0.229709 0.05)
(0.05 0.230829 0.05)
(0.05 0.231954 0.05)
(0.05 0.233084 0.05)
(0.05 0.23422 0.05)
(0.05 0.235361 0.05)
(0.05 0.236508 0.05)
(0.05 0.237659 0.05)
(0.05 0.238817 0.05)
(0.05 0.239979 0.05)
(0.05 0.241148 0.05)
(0.05 0.242321 0.05)
(0.05 0.243501 0.05)
(0.05 0.244686 0.05)
(0.05 0.245875 0.05)
(0.05 0.247072 0.05)
(0.05 0.248273 0.05)
(0.05 0.24948 0.05)
(0.05 0.250693 0.05)
(0.05 0.251912 0.05)
(0.05 0.253137 0.05)
(0.05 0.254366 0.05)
(0.05 0.255603 0.05)
(0.05 0.256844 0.05)
(0.05 0.258091 0.05)
(0.05 0.259345 0.05)
(0.05 0.260605 0.05)
(0.05 0.26187 0.05)
(0.05 0.263141 0.05)
(0.05 0.264418 0.05)
(0.05 0.265701 0.05)
(0.05 0.266991 0.05)
(0.05 0.268286 0.05)
(0.05 0.269587 0.05)
(0.05 0.270895 0.05)
(0.05 0.272208 0.05)
(0.05 0.273529 0.05)
(0.05 0.274854 0.05)
(0.05 0.276187 0.05)
(0.05 0.277525 0.05)
(0.05 0.27887 0.05)
(0.05 0.280222 0.05)
(0.05 0.28158 0.05)
(0.05 0.282943 0.05)
(0.05 0.284313 0.05)
(0.05 0.28569 0.05)
(0.05 0.287074 0.05)
(0.05 0.288463 0.05)
(0.05 0.28986 0.05)
(0.05 0.291263 0.05)
(0.05 0.292673 0.05)
(0.05 0.294089 0.05)
(0.05 0.295512 0.05)
(0.05 0.296941 0.05)
(0.05 0.298378 0.05)
(0.05 0.29982 0.05)
(0.05 0.30127 0.05)
(0.05 0.302727 0.05)
(0.05 0.30419 0.05)
(0.05 0.305661 0.05)
(0.05 0.307138 0.05)
(0.05 0.308623 0.05)
(0.05 0.310114 0.05)
(0.05 0.311612 0.05)
(0.05 0.313117 0.05)
(0.05 0.31463 0.05)
(0.05 0.316149 0.05)
(0.05 0.317676 0.05)
(0.05 0.319211 0.05)
(0.05 0.320751 0.05)
(0.05 0.3223 0.05)
(0.05 0.323855 0.05)
(0.05 0.325418 0.05)
(0.05 0.326989 0.05)
(0.05 0.328566 0.05)
(0.05 0.330151 0.05)
(0.05 0.331744 0.05)
(0.05 0.333345 0.05)
(0.05 0.334952 0.05)
(0.05 0.336568 0.05)
(0.05 0.338191 0.05)
(0.05 0.339821 0.05)
(0.05 0.341459 0.05)
(0.05 0.343105 0.05)
(0.05 0.344758 0.05)
(0.05 0.34642 0.05)
(0.05 0.348089 0.05)
(0.05 0.349766 0.05)
(0.05 0.351451 0.05)
(0.05 0.353144 0.05)
(0.05 0.354844 0.05)
(0.05 0.356553 0.05)
(0.05 0.35827 0.05)
(0.05 0.359995 0.05)
(0.05 0.361729 0.05)
(0.05 0.36347 0.05)
(0.05 0.36522 0.05)
(0.05 0.366977 0.05)
(0.05 0.368743 0.05)
(0.05 0.370517 0.05)
(0.05 0.3723 0.05)
(0.05 0.374091 0.05)
(0.05 0.375891 0.05)
(0.05 0.377699 0.05)
(0.05 0.379515 0.05)
(0.05 0.38134 0.05)
(0.05 0.383174 0.05)
(0.05 0.385016 0.05)
(0.05 0.386866 0.05)
(0.05 0.388726 0.05)
(0.05 0.390594 0.05)
(0.05 0.392472 0.05)
(0.05 0.394358 0.05)
(0.05 0.396252 0.05)
(0.05 0.398157 0.05)
(0.05 0.40007 0.05)
(0.05 0.401991 0.05)
(0.05 0.403922 0.05)
(0.05 0.405862 0.05)
(0.05 0.407811 0.05)
(0.05 0.409769 0.05)
(0.05 0.411736 0.05)
(0.05 0.413713 0.05)
(0.05 0.415699 0.05)
(0.05 0.417694 0.05)
(0.05 0.419699 0.05)
(0.05 0.421713 0.05)
(0.05 0.423737 0.05)
(0.05 0.42577 0.05)
(0.05 0.427813 0.05)
(0.05 0.429865 0.05)
(0.05 0.431928 0.05)
(0.05 0.433999 0.05)
(0.05 0.43608 0.05)
(0.05 0.438171 0.05)
(0.05 0.440273 0.05)
(0.05 0.442384 0.05)
(0.05 0.444505 0.05)
(0.05 0.446636 0.05)
(0.05 0.448777 0.05)
(0.05 0.450928 0.05)
(0.05 0.453089 0.05)
(0.05 0.45526 0.05)
(0.05 0.457442 0.05)
(0.05 0.459634 0.05)
(0.05 0.461836 0.05)
(0.05 0.464048 0.05)
(0.05 0.466271 0.05)
(0.05 0.468504 0.05)
(0.05 0.470748 0.05)
(0.05 0.473003 0.05)
(0.05 0.475268 0.05)
(0.05 0.477543 0.05)
(0.05 0.47983 0.05)
(0.05 0.482127 0.05)
(0.05 0.484435 0.05)
(0.05 0.486754 0.05)
(0.05 0.489084 0.05)
(0.05 0.491425 0.05)
(0.05 0.493776 0.05)
(0.05 0.496139 0.05)
(0.05 0.498513 0.05)
(0.05 0.500899 0.05)
(0.05 0.503295 0.05)
(0.05 0.505703 0.05)
(0.05 0.508121 0.05)
(0.05 0.510552 0.05)
(0.05 0.512994 0.05)
(0.05 0.515447 0.05)
(0.05 0.517912 0.05)
(0.05 0.520388 0.05)
(0.05 0.522876 0.05)
(0.05 0.525376 0.05)
(0.05 0.527888 0.05)
(0.05 0.530412 0.05)
(0.05 0.532947 0.05)
(0.05 0.535493 0.05)
(0.05 0.538053 0.05)
(0.05 0.540624 0.05)
(0.05 0.543208 0.05)
(0.05 0.545803 0.05)
(0.05 0.548411 0.05)
(0.05 0.551031 0.05)
(0.05 0.553663 0.05)
(0.05 0.556308 0.05)
(0.05 0.558966 0.05)
(0.05 0.561635 0.05)
(0.05 0.564318 0.05)
(0.05 0.567012 0.05)
(0.05 0.56972 0.05)
(0.05 0.57244 0.05)
(0.05 0.575174 0.05)
(0.05 0.57792 0.05)
(0.05 0.580678 0.05)
(0.05 0.583451 0.05)
(0.05 0.586236 0.05)
(0.05 0.589033 0.05)
(0.05 0.591845 0.05)
(0.05 0.594669 0.05)
(0.05 0.597507 0.05)
(0.05 0.600358 0.05)
(0.05 0.603222 0.05)
(0.05 0.606101 0.05)
(0.05 0.608992 0.05)
(0.05 0.611897 0.05)
(0.05 0.614816 0.05)
(0.05 0.617749 0.05)
(0.05 0.620695 0.05)
(0.05 0.623655 0.05)
(0.05 0.62663 0.05)
(0.05 0.629618 0.05)
(0.05 0.63262 0.05)
(0.05 0.635637 0.05)
(0.05 0.638667 0.05)
(0.05 0.641712 0.05)
(0.05 0.644772 0.05)
(0.05 0.647846 0.05)
(0.05 0.650934 0.05)
(0.05 0.654036 0.05)
(0.05 0.657153 0.05)
(0.05 0.660285 0.05)
(0.05 0.663432 0.05)
(0.05 0.666593 0.05)
(0.05 0.66977 0.05)
(0.05 0.672961 0.05)
(0.05 0.676167 0.05)
(0.05 0.679388 0.05)
(0.05 0.682625 0.05)
(0.05 0.685877 0.05)
(0.05 0.689145 0.05)
(0.05 0.692427 0.05)
(0.05 0.695725 0.05)
(0.05 0.699039 0.05)
(0.05 0.702368 0.05)
(0.05 0.705712 0.05)
(0.05 0.709072 0.05)
(0.05 0.712449 0.05)
(0.05 0.715841 0.05)
(0.05 0.719249 0.05)
(0.05 0.722673 0.05)
(0.05 0.726113 0.05)
(0.05 0.729571 0.05)
(0.05 0.733043 0.05)
(0.05 0.736532 0.05)
(0.05 0.740038 0.05)
(0.05 0.74356 0.05)
(0.05 0.747098 0.05)
(0.05 0.750654 0.05)
(0.05 0.754226 0.05)
(0.05 0.757815 0.05)
(0.05 0.76142 0.05)
(0.05 0.765043 0.05)
(0.05 0.768683 0.05)
(0.05 0.77234 0.05)
(0.05 0.776014 0.05)
(0.05 0.779705 0.05)
(0.05 0.783414 0.05)
(0.05 0.78714 0.05)
(0.05 0.790884 0.05)
(0.05 0.794646 0.05)
(0.05 0.798425 0.05)
(0.05 0.802222 0.05)
(0.05 0.806037 0.05)
(0.05 0.809869 0.05)
(0.05 0.81372 0.05)
(0.05 0.817589 0.05)
(0.05 0.821476 0.05)
(0.05 0.825381 0.05)
(0.05 0.829305 0.05)
(0.05 0.833248 0.05)
(0.05 0.837208 0.05)
(0.05 0.841187 0.05)
(0.05 0.845186 0.05)
(0.05 0.849203 0.05)
(0.05 0.853239 0.05)
(0.05 0.857294 0.05)
(0.05 0.861368 0.05)
(0.05 0.865461 0.05)
(0.05 0.869574 0.05)
(0.05 0.873706 0.05)
(0.05 0.877857 0.05)
(0.05 0.882027 0.05)
(0.05 0.886218 0.05)
(0.05 0.890428 0.05)
(0.05 0.894658 0.05)
(0.05 0.898908 0.05)
(0.05 0.903178 0.05)
(0.05 0.907468 0.05)
(0.05 0.911778 0.05)
(0.05 0.916108 0.05)
(0.05 0.920459 0.05)
(0.05 0.924831 0.05)
(0.05 0.929223 0.05)
(0.05 0.933635 0.05)
(0.05 0.938069 0.05)
(0.05 0.942523 0.05)
(0.05 0.946999 0.05)
(0.05 0.951494 0.05)
(0.05 0.956012 0.05)
(0.05 0.960551 0.05)
(0.05 0.965111 0.05)
(0.05 0.969692 0.05)
(0.05 0.974296 0.05)
(0.05 0.97892 0.05)
(0.05 0.983567 0.05)
(0.05 0.988235 0.05)
(0.05 0.992925 0.05)
(0.05 0.997638 0.05)
)
;

boundaryField
{
    INLET
    {
        type            sliced;
        value           nonuniform List<vector> 
1025
(
(0 1.92643e-05 0.05)
(0 5.78835e-05 0.05)
(0 9.66847e-05 0.05)
(0 0.000135668 0.05)
(0 0.000174835 0.05)
(0 0.000214187 0.05)
(0 0.000253724 0.05)
(0 0.000293447 0.05)
(0 0.000333357 0.05)
(0 0.000373454 0.05)
(0 0.000413741 0.05)
(0 0.000454217 0.05)
(0 0.000494884 0.05)
(0 0.000535742 0.05)
(0 0.000576792 0.05)
(0 0.000618036 0.05)
(0 0.000659474 0.05)
(0 0.000701106 0.05)
(0 0.000742935 0.05)
(0 0.000784961 0.05)
(0 0.000827185 0.05)
(0 0.000869607 0.05)
(0 0.000912229 0.05)
(0 0.000955052 0.05)
(0 0.000998077 0.05)
(0 0.00104131 0.05)
(0 0.00108474 0.05)
(0 0.00112837 0.05)
(0 0.00117221 0.05)
(0 0.00121625 0.05)
(0 0.00126051 0.05)
(0 0.00130497 0.05)
(0 0.00134964 0.05)
(0 0.00139452 0.05)
(0 0.00143962 0.05)
(0 0.00148493 0.05)
(0 0.00153044 0.05)
(0 0.00157617 0.05)
(0 0.00162212 0.05)
(0 0.00166828 0.05)
(0 0.00171466 0.05)
(0 0.00176126 0.05)
(0 0.00180809 0.05)
(0 0.00185513 0.05)
(0 0.00190239 0.05)
(0 0.00194987 0.05)
(0 0.00199758 0.05)
(0 0.00204551 0.05)
(0 0.00209366 0.05)
(0 0.00214205 0.05)
(0 0.00219067 0.05)
(0 0.00223951 0.05)
(0 0.00228857 0.05)
(0 0.00233787 0.05)
(0 0.0023874 0.05)
(0 0.00243717 0.05)
(0 0.00248718 0.05)
(0 0.00253741 0.05)
(0 0.00258788 0.05)
(0 0.0026386 0.05)
(0 0.00268955 0.05)
(0 0.00274073 0.05)
(0 0.00279217 0.05)
(0 0.00284384 0.05)
(0 0.00289575 0.05)
(0 0.00294791 0.05)
(0 0.00300031 0.05)
(0 0.00305296 0.05)
(0 0.00310586 0.05)
(0 0.00315901 0.05)
(0 0.00321241 0.05)
(0 0.00326606 0.05)
(0 0.00331996 0.05)
(0 0.00337412 0.05)
(0 0.00342853 0.05)
(0 0.0034832 0.05)
(0 0.00353813 0.05)
(0 0.00359331 0.05)
(0 0.00364875 0.05)
(0 0.00370446 0.05)
(0 0.00376042 0.05)
(0 0.00381665 0.05)
(0 0.00387315 0.05)
(0 0.00392991 0.05)
(0 0.00398694 0.05)
(0 0.00404423 0.05)
(0 0.0041018 0.05)
(0 0.00415963 0.05)
(0 0.00421774 0.05)
(0 0.00427613 0.05)
(0 0.00433478 0.05)
(0 0.00439371 0.05)
(0 0.00445292 0.05)
(0 0.00451241 0.05)
(0 0.00457219 0.05)
(0 0.00463224 0.05)
(0 0.00469257 0.05)
(0 0.00475319 0.05)
(0 0.00481409 0.05)
(0 0.00487529 0.05)
(0 0.00493676 0.05)
(0 0.00499853 0.05)
(0 0.00506059 0.05)
(0 0.00512294 0.05)
(0 0.00518558 0.05)
(0 0.00524852 0.05)
(0 0.00531175 0.05)
(0 0.00537528 0.05)
(0 0.00543912 0.05)
(0 0.00550325 0.05)
(0 0.00556769 0.05)
(0 0.00563242 0.05)
(0 0.00569746 0.05)
(0 0.00576281 0.05)
(0 0.00582846 0.05)
(0 0.00589443 0.05)
(0 0.0059607 0.05)
(0 0.00602729 0.05)
(0 0.00609419 0.05)
(0 0.0061614 0.05)
(0 0.00622893 0.05)
(0 0.00629679 0.05)
(0 0.00636496 0.05)
(0 0.00643345 0.05)
(0 0.00650226 0.05)
(0 0.0065714 0.05)
(0 0.00664086 0.05)
(0 0.00671065 0.05)
(0 0.00678076 0.05)
(0 0.00685121 0.05)
(0 0.00692199 0.05)
(0 0.0069931 0.05)
(0 0.00706455 0.05)
(0 0.00713633 0.05)
(0 0.00720846 0.05)
(0 0.00728091 0.05)
(0 0.00735372 0.05)
(0 0.00742686 0.05)
(0 0.00750035 0.05)
(0 0.00757419 0.05)
(0 0.00764836 0.05)
(0 0.0077229 0.05)
(0 0.00779778 0.05)
(0 0.00787302 0.05)
(0 0.0079486 0.05)
(0 0.00802455 0.05)
(0 0.00810085 0.05)
(0 0.00817751 0.05)
(0 0.00825454 0.05)
(0 0.00833192 0.05)
(0 0.00840967 0.05)
(0 0.00848778 0.05)
(0 0.00856626 0.05)
(0 0.00864512 0.05)
(0 0.00872435 0.05)
(0 0.00880394 0.05)
(0 0.00888391 0.05)
(0 0.00896426 0.05)
(0 0.00904498 0.05)
(0 0.00912608 0.05)
(0 0.00920757 0.05)
(0 0.00928945 0.05)
(0 0.0093717 0.05)
(0 0.00945435 0.05)
(0 0.00953738 0.05)
(0 0.0096208 0.05)
(0 0.00970461 0.05)
(0 0.00978882 0.05)
(0 0.00987343 0.05)
(0 0.00995842 0.05)
(0 0.0100438 0.05)
(0 0.0101297 0.05)
(0 0.0102159 0.05)
(0 0.0103025 0.05)
(0 0.0103895 0.05)
(0 0.0104769 0.05)
(0 0.0105648 0.05)
(0 0.0106531 0.05)
(0 0.0107417 0.05)
(0 0.0108308 0.05)
(0 0.0109203 0.05)
(0 0.0110102 0.05)
(0 0.0111006 0.05)
(0 0.0111914 0.05)
(0 0.0112826 0.05)
(0 0.0113742 0.05)
(0 0.0114663 0.05)
(0 0.0115589 0.05)
(0 0.0116517 0.05)
(0 0.0117451 0.05)
(0 0.011839 0.05)
(0 0.0119332 0.05)
(0 0.0120279 0.05)
(0 0.012123 0.05)
(0 0.0122186 0.05)
(0 0.0123147 0.05)
(0 0.0124112 0.05)
(0 0.0125081 0.05)
(0 0.0126055 0.05)
(0 0.0127034 0.05)
(0 0.0128018 0.05)
(0 0.0129005 0.05)
(0 0.0129997 0.05)
(0 0.0130995 0.05)
(0 0.0131997 0.05)
(0 0.0133003 0.05)
(0 0.0134015 0.05)
(0 0.0135031 0.05)
(0 0.0136052 0.05)
(0 0.0137078 0.05)
(0 0.0138108 0.05)
(0 0.0139144 0.05)
(0 0.0140184 0.05)
(0 0.0141229 0.05)
(0 0.0142279 0.05)
(0 0.0143334 0.05)
(0 0.0144394 0.05)
(0 0.0145459 0.05)
(0 0.0146529 0.05)
(0 0.0147604 0.05)
(0 0.0148684 0.05)
(0 0.0149769 0.05)
(0 0.0150859 0.05)
(0 0.0151955 0.05)
(0 0.0153056 0.05)
(0 0.0154161 0.05)
(0 0.0155272 0.05)
(0 0.0156388 0.05)
(0 0.015751 0.05)
(0 0.0158637 0.05)
(0 0.0159769 0.05)
(0 0.0160906 0.05)
(0 0.0162049 0.05)
(0 0.0163197 0.05)
(0 0.0164351 0.05)
(0 0.0165509 0.05)
(0 0.0166673 0.05)
(0 0.0167843 0.05)
(0 0.0169019 0.05)
(0 0.01702 0.05)
(0 0.0171386 0.05)
(0 0.0172579 0.05)
(0 0.0173776 0.05)
(0 0.0174979 0.05)
(0 0.0176189 0.05)
(0 0.0177403 0.05)
(0 0.0178623 0.05)
(0 0.0179849 0.05)
(0 0.0181081 0.05)
(0 0.0182319 0.05)
(0 0.0183562 0.05)
(0 0.0184812 0.05)
(0 0.0186067 0.05)
(0 0.0187328 0.05)
(0 0.0188595 0.05)
(0 0.0189869 0.05)
(0 0.0191148 0.05)
(0 0.0192433 0.05)
(0 0.0193724 0.05)
(0 0.0195021 0.05)
(0 0.0196324 0.05)
(0 0.0197633 0.05)
(0 0.019895 0.05)
(0 0.0200272 0.05)
(0 0.0201599 0.05)
(0 0.0202933 0.05)
(0 0.0204274 0.05)
(0 0.0205621 0.05)
(0 0.0206974 0.05)
(0 0.0208333 0.05)
(0 0.0209699 0.05)
(0 0.0211072 0.05)
(0 0.0212451 0.05)
(0 0.0213836 0.05)
(0 0.0215227 0.05)
(0 0.0216626 0.05)
(0 0.0218031 0.05)
(0 0.0219442 0.05)
(0 0.0220861 0.05)
(0 0.0222286 0.05)
(0 0.0223718 0.05)
(0 0.0225156 0.05)
(0 0.0226602 0.05)
(0 0.0228053 0.05)
(0 0.0229512 0.05)
(0 0.0230978 0.05)
(0 0.023245 0.05)
(0 0.023393 0.05)
(0 0.0235416 0.05)
(0 0.0236909 0.05)
(0 0.023841 0.05)
(0 0.0239917 0.05)
(0 0.0241432 0.05)
(0 0.0242954 0.05)
(0 0.0244483 0.05)
(0 0.0246019 0.05)
(0 0.0247562 0.05)
(0 0.0249113 0.05)
(0 0.0250671 0.05)
(0 0.0252237 0.05)
(0 0.0253809 0.05)
(0 0.0255389 0.05)
(0 0.0256977 0.05)
(0 0.0258571 0.05)
(0 0.0260174 0.05)
(0 0.0261784 0.05)
(0 0.0263401 0.05)
(0 0.0265026 0.05)
(0 0.026666 0.05)
(0 0.02683 0.05)
(0 0.0269948 0.05)
(0 0.0271604 0.05)
(0 0.0273268 0.05)
(0 0.0274939 0.05)
(0 0.0276619 0.05)
(0 0.0278306 0.05)
(0 0.0280002 0.05)
(0 0.0281705 0.05)
(0 0.0283416 0.05)
(0 0.0285136 0.05)
(0 0.0286863 0.05)
(0 0.0288599 0.05)
(0 0.0290343 0.05)
(0 0.0292095 0.05)
(0 0.0293855 0.05)
(0 0.0295623 0.05)
(0 0.0297401 0.05)
(0 0.0299185 0.05)
(0 0.0300979 0.05)
(0 0.0302781 0.05)
(0 0.0304592 0.05)
(0 0.0306411 0.05)
(0 0.0308239 0.05)
(0 0.0310075 0.05)
(0 0.0311919 0.05)
(0 0.0313773 0.05)
(0 0.0315635 0.05)
(0 0.0317506 0.05)
(0 0.0319386 0.05)
(0 0.0321275 0.05)
(0 0.0323173 0.05)
(0 0.032508 0.05)
(0 0.0326995 0.05)
(0 0.032892 0.05)
(0 0.0330853 0.05)
(0 0.0332796 0.05)
(0 0.0334747 0.05)
(0 0.0336708 0.05)
(0 0.0338679 0.05)
(0 0.0340658 0.05)
(0 0.0342647 0.05)