/*--------------------------------*- C++ -*----------------------------------*\
| =========                 |                                                 |
| \\      /  F ield         | OpenFOAM: The Open Source CFD Toolbox           |
|  \\    /   O peration     | Version:  v1806                                 |
|   \\  /    A nd           | Web:      www.OpenFOAM.com                      |
|    \\/     M anipulation  |                                                 |
\*---------------------------------------------------------------------------*/
FoamFile
{
    version     2.0;
    format      ascii;
    class       volSymmTensorField;
    location    "10000";
    object      RS_DNS;
}
// * * * * * * * * * * * * * * * * * * * * * * * * * * * * * * * * * * * * * //

dimensions      [0 2 -2 0 0 0 0];


internalField   nonuniform List<symmTensor> 
1025
(
(6.40561e-07 -1.78018e-10 2.00826e-10 1.59377e-12 -5.79885e-14 2.83026e-07)
(5.53422e-06 -4.06346e-09 1.75289e-09 8.2191e-11 -1.33314e-12 2.40289e-06)
(1.52227e-05 -1.85356e-08 4.87165e-09 5.93914e-10 -6.11881e-12 6.49088e-06)
(2.99804e-05 -5.24665e-08 9.69892e-09 2.32978e-09 -1.74028e-11 1.25373e-05)
(4.7991e-05 -1.02128e-07 1.56417e-08 5.25546e-09 -3.39474e-11 1.97959e-05)
(7.33849e-05 -1.99889e-07 2.41879e-08 1.25669e-08 -6.65898e-11 2.96406e-05)
(0.000100617 -3.14768e-07 3.34093e-08 2.18702e-08 -1.04924e-10 4.0069e-05)
(0.000136558 -5.13333e-07 4.58438e-08 4.09881e-08 -1.71082e-10 5.3228e-05)
(0.000172667 -7.12832e-07 5.83369e-08 6.0196e-08 -2.37552e-10 6.64491e-05)
(0.000219019 -1.05103e-06 7.48044e-08 9.9097e-08 -3.49435e-10 8.24661e-05)
(0.000267905 -1.42248e-06 9.22494e-08 1.42686e-07 -4.72209e-10 9.91868e-05)
(0.000317959 -1.81309e-06 1.10162e-07 1.89337e-07 -6.01133e-10 0.000116201)
(0.000381773 -2.45638e-06 1.33712e-07 2.77368e-07 -8.10928e-10 0.000136386)
(0.000445888 -3.1027e-06 1.57373e-07 3.65813e-07 -1.02171e-09 0.000156666)
(0.000510305 -3.75206e-06 1.81145e-07 4.54675e-07 -1.23349e-09 0.000177041)
(0.000590444 -4.77943e-06 2.11737e-07 6.12309e-07 -1.56298e-09 0.000200382)
(0.000671995 -5.83676e-06 2.42922e-07 7.75268e-07 -1.90184e-09 0.000224026)
(0.00075393 -6.89909e-06 2.74254e-07 9.38995e-07 -2.2423e-09 0.000247781)
(0.000844388 -8.21884e-06 3.09494e-07 1.1533e-06 -2.66068e-09 0.000272837)
(0.000945348 -9.85737e-06 3.49557e-07 1.43028e-06 -3.17551e-09 0.000299483)
(0.00104678 -1.15036e-05 3.89807e-07 1.70856e-06 -3.69275e-09 0.000326254)
(0.00114869 -1.31576e-05 4.30248e-07 1.98815e-06 -4.21243e-09 0.000353151)
(0.00126304 -1.52834e-05 4.76772e-07 2.36659e-06 -4.87076e-09 0.000381484)
(0.00138548 -1.77122e-05 5.27237e-07 2.80838e-06 -5.61817e-09 0.000410778)
(0.0015085 -2.01525e-05 5.7794e-07 3.25225e-06 -6.3691e-09 0.00044021)
(0.00163209 -2.26043e-05 6.28883e-07 3.69821e-06 -7.12358e-09 0.000469782)
(0.00176537 -2.55052e-05 6.84879e-07 4.24361e-06 -8.00622e-09 0.000500188)
(0.0019102 -2.89447e-05 7.46914e-07 4.90833e-06 -9.04249e-09 0.000531575)
(0.00205571 -3.24005e-05 8.09241e-07 5.57617e-06 -1.00836e-08 0.000563109)
(0.00220189 -3.58723e-05 8.71859e-07 6.24713e-06 -1.11296e-08 0.00059479)
(0.00234878 -3.93607e-05 9.34776e-07 6.9213e-06 -1.21806e-08 0.000626623)
(0.0025156 -4.4017e-05 1.00905e-06 7.87031e-06 -1.35539e-08 0.000659496)
(0.00268336 -4.8704e-05 1.08376e-06 8.82587e-06 -1.49361e-08 0.000692531)
(0.00285193 -5.34135e-05 1.15883e-06 9.78602e-06 -1.6325e-08 0.000725725)
(0.00302129 -5.81451e-05 1.23425e-06 1.07507e-05 -1.77203e-08 0.000759074)
(0.0031957 -6.32235e-05 1.31275e-06 1.1802e-05 -1.92085e-08 0.000792647)
(0.00338401 -6.93245e-05 1.40001e-06 1.31109e-05 -2.09692e-08 0.000826587)
(0.00357322 -7.54543e-05 1.48767e-06 1.44261e-05 -2.27383e-08 0.000860687)
(0.00376334 -8.16135e-05 1.57576e-06 1.57475e-05 -2.45158e-08 0.000894952)
(0.00395435 -8.78016e-05 1.66426e-06 1.70751e-05 -2.63017e-08 0.000929377)
(0.00414947 -9.43538e-05 1.75561e-06 1.85017e-05 -2.81818e-08 0.000963894)
(0.00435603 -0.000102027 1.85532e-06 2.02364e-05 -3.03504e-08 0.000998357)
(0.00456356 -0.000109736 1.9555e-06 2.19792e-05 -3.25292e-08 0.00103298)
(0.00477207 -0.000117482 2.05615e-06 2.37303e-05 -3.47183e-08 0.00106777)
(0.00498155 -0.000125264 2.15728e-06 2.54896e-05 -3.69176e-08 0.00110272)
(0.00519202 -0.000133083 2.25888e-06 2.72572e-05 -3.91273e-08 0.00113784)
(0.00541194 -0.000142356 2.36968e-06 2.94739e-05 -4.17023e-08 0.00117237)
(0.00563302 -0.000151696 2.48115e-06 3.17083e-05 -4.42953e-08 0.00120704)
(0.00585513 -0.000161081 2.59313e-06 3.39532e-05 -4.69004e-08 0.00124188)
(0.00607831 -0.000170509 2.70565e-06 3.62089e-05 -4.9518e-08 0.00127688)
(0.00630254 -0.000179983 2.81871e-06 3.84753e-05 -5.2148e-08 0.00131205)
(0.00652896 -0.000190191 2.93566e-06 4.10033e-05 -5.49658e-08 0.00134679)
(0.00675755 -0.000201116 3.05643e-06 4.37866e-05 -5.79669e-08 0.00138113)
(0.00698722 -0.000212093 3.17776e-06 4.6583e-05 -6.0982e-08 0.00141563)
(0.00721795 -0.00022312 3.29966e-06 4.93924e-05 -6.40112e-08 0.00145029)
(0.00744981 -0.000234201 3.42215e-06 5.22154e-05 -6.70551e-08 0.00148512)
(0.00768276 -0.000245334 3.54522e-06 5.50518e-05 -7.01134e-08 0.00152012)
(0.00791285 -0.000257498 3.67198e-06 5.83431e-05 -7.34605e-08 0.00155407)
(0.00814323 -0.000269918 3.79997e-06 6.17393e-05 -7.6879e-08 0.00158794)
(0.0083747 -0.000282397 3.92857e-06 6.51517e-05 -8.03137e-08 0.00162197)
(0.00860727 -0.000294934 4.05777e-06 6.85802e-05 -8.37647e-08 0.00165617)
(0.00884093 -0.000307531 4.18759e-06 7.20249e-05 -8.72319e-08 0.00169052)
(0.00907569 -0.000320187 4.31801e-06 7.54857e-05 -9.07154e-08 0.00172503)
(0.00930019 -0.000333787 4.44941e-06 7.95048e-05 -9.45293e-08 0.00175811)
(0.00952542 -0.000347477 4.58145e-06 8.35585e-05 -9.83703e-08 0.0017913)
(0.00975173 -0.000361232 4.71411e-06 8.76312e-05 -1.02229e-07 0.00182465)
(0.00997909 -0.000375051 4.84739e-06 9.17231e-05 -1.06107e-07 0.00185815)
(0.0102075 -0.000388935 4.98129e-06 9.58341e-05 -1.10002e-07 0.00189181)
(0.010437 -0.000402885 5.11583e-06 9.99647e-05 -1.13916e-07 0.00192563)
(0.0106506 -0.000417451 5.24791e-06 0.000104658 -1.18157e-07 0.00195793)
(0.0108642 -0.000432115 5.38044e-06 0.000109403 -1.22435e-07 0.00199029)
(0.0110788 -0.000446848 5.51359e-06 0.000114169 -1.26733e-07 0.0020228)
(0.0112944 -0.00046165 5.64736e-06 0.000118958 -1.31051e-07 0.00205547)
(0.0115111 -0.000476522 5.78178e-06 0.000123771 -1.3539e-07 0.00208829)
(0.0117287 -0.000491464 5.91682e-06 0.000128605 -1.39749e-07 0.00212126)
(0.0119294 -0.000506643 6.04714e-06 0.000133911 -1.44391e-07 0.00215295)
(0.0121259 -0.000521942 6.17657e-06 0.000139369 -1.49129e-07 0.00218438)
(0.0123234 -0.000537313 6.30661e-06 0.000144852 -1.5389e-07 0.00221596)
(0.0125218 -0.000552756 6.43727e-06 0.000150361 -1.58673e-07 0.00224768)
(0.0127211 -0.000568272 6.56854e-06 0.000155897 -1.63478e-07 0.00227956)
(0.0129214 -0.00058386 6.70042e-06 0.000161458 -1.68306e-07 0.00231159)
(0.0131097 -0.000599448 6.82808e-06 0.000167319 -1.73329e-07 0.00234285)
(0.0132851 -0.00061503 6.95115e-06 0.0001735 -1.78562e-07 0.00237327)
(0.0134612 -0.000630686 7.0748e-06 0.000179711 -1.83819e-07 0.00240384)
(0.0136383 -0.000646415 7.19903e-06 0.000185951 -1.89101e-07 0.00243456)
(0.0138161 -0.000662218 7.32384e-06 0.000192221 -1.94407e-07 0.00246542)
(0.0139948 -0.000678096 7.44924e-06 0.000198519 -1.99739e-07 0.00249642)
(0.0141722 -0.000694011 7.5743e-06 0.000204888 -2.05124e-07 0.00252743)
(0.0143239 -0.000709541 7.68834e-06 0.000211792 -2.10896e-07 0.00255679)
(0.0144762 -0.000725145 7.80292e-06 0.000218729 -2.16695e-07 0.0025863)
(0.0146292 -0.000740821 7.91803e-06 0.000225698 -2.22522e-07 0.00261594)
(0.014783 -0.00075657 8.03367e-06 0.0002327 -2.28375e-07 0.00264571)
(0.0149375 -0.000772394 8.14987e-06 0.000239735 -2.34257e-07 0.00267564)
(0.0150927 -0.000788293 8.26662e-06 0.000246804 -2.40166e-07 0.0027057)
(0.0152321 -0.000803816 8.37584e-06 0.000254196 -2.46346e-07 0.00273479)
(0.0153594 -0.000819069 8.47941e-06 0.000261846 -2.52743e-07 0.00276317)
(0.0154873 -0.000834393 8.58347e-06 0.000269531 -2.59169e-07 0.00279168)
(0.0156159 -0.000849787 8.688e-06 0.000277252 -2.65625e-07 0.00282032)
(0.015745 -0.000865256 8.79304e-06 0.00028501 -2.72112e-07 0.0028491)
(0.0158748 -0.000880797 8.89857e-06 0.000292805 -2.78629e-07 0.00287802)
(0.0160051 -0.00089641 9.00459e-06 0.000300635 -2.85177e-07 0.00290707)
(0.0161082 -0.000911085 9.09629e-06 0.000308961 -2.92213e-07 0.0029343)
(0.0162111 -0.000925808 9.18811e-06 0.000317336 -2.99294e-07 0.00296163)
(0.0163146 -0.0009406 9.28035e-06 0.00032575 -3.06408e-07 0.00298908)
(0.0164185 -0.000955462 9.37303e-06 0.000334205 -3.13555e-07 0.00301666)
(0.0165229 -0.000970393 9.46615e-06 0.000342699 -3.20736e-07 0.00304437)
(0.0166278 -0.000985394 9.55969e-06 0.000351232 -3.2795e-07 0.0030722)
(0.0167246 -0.00100008 9.64881e-06 0.000359938 -3.35357e-07 0.00309953)
(0.0168036 -0.00101402 9.72797e-06 0.000368965 -3.43135e-07 0.0031256)
(0.0168831 -0.00102801 9.80749e-06 0.000378034 -3.50948e-07 0.00315179)
(0.0169629 -0.00104208 9.88739e-06 0.000387146 -3.58799e-07 0.00317811)
(0.017043 -0.00105621 9.96766e-06 0.0003963 -3.66686e-07 0.00320455)
(0.0171236 -0.00107041 1.00483e-05 0.000405498 -3.74611e-07 0.00323111)
(0.0172045 -0.00108467 1.01293e-05 0.000414739 -3.82573e-07 0.0032578)
(0.0172711 -0.00109821 1.02019e-05 0.000424232 -3.90865e-07 0.00328337)
(0.0173283 -0.00111128 1.02691e-05 0.000433906 -3.99388e-07 0.00330825)
(0.0173858 -0.00112442 1.03366e-05 0.000443626 -4.0795e-07 0.00333325)
(0.0174436 -0.00113762 1.04044e-05 0.000453391 -4.16553e-07 0.00335836)
(0.0175016 -0.00115089 1.04725e-05 0.000463202 -4.25196e-07 0.00338359)
(0.0175599 -0.00116421 1.05409e-05 0.00047306 -4.3388e-07 0.00340894)
(0.0176185 -0.0011776 1.06097e-05 0.000482964 -4.42605e-07 0.00343441)
(0.0176591 -0.00118989 1.06677e-05 0.000493141 -4.51711e-07 0.00345824)
(0.0176966 -0.00120203 1.07238e-05 0.000503409 -4.60923e-07 0.00348186)
(0.0177342 -0.00121423 1.07803e-05 0.000513725 -4.70177e-07 0.00350559)
(0.017772 -0.00122648 1.0837e-05 0.000524089 -4.79476e-07 0.00352944)
(0.01781 -0.00123879 1.0894e-05 0.000534503 -4.88819e-07 0.0035534)
(0.0178481 -0.00125116 1.09512e-05 0.000544965 -4.98205e-07 0.00357746)
(0.0178855 -0.00126351 1.10082e-05 0.000555485 -5.07645e-07 0.00360154)
(0.0179054 -0.00127462 1.10547e-05 0.000566232 -5.17332e-07 0.00362374)
(0.0179253 -0.00128579 1.11014e-05 0.00057703 -5.27064e-07 0.00364605)
(0.0179453 -0.001297 1.11484e-05 0.000587877 -5.3684e-07 0.00366847)
(0.0179654 -0.00130827 1.11956e-05 0.000598776 -5.46663e-07 0.00369099)
(0.0179857 -0.00131959 1.1243e-05 0.000609727 -5.56534e-07 0.00371362)
(0.018006 -0.00133096 1.12906e-05 0.000620729 -5.6645e-07 0.00373635)
(0.0180227 -0.00134208 1.13363e-05 0.000631805 -5.7639e-07 0.00375871)
(0.0180275 -0.00135222 1.13752e-05 0.000643008 -5.86303e-07 0.00377957)
(0.0180322 -0.0013624 1.14143e-05 0.000654264 -5.96262e-07 0.00380053)
(0.018037 -0.00137264 1.14535e-05 0.000665573 -6.06269e-07 0.00382158)
(0.0180418 -0.00138292 1.1493e-05 0.000676935 -6.16323e-07 0.00384274)
(0.0180466 -0.00139325 1.15326e-05 0.00068835 -6.26423e-07 0.003864)
(0.0180514 -0.00140363 1.15724e-05 0.000699819 -6.36572e-07 0.00388536)
(0.0180511 -0.00141355 1.16095e-05 0.000711345 -6.46583e-07 0.00390599)
(0.018043 -0.00142274 1.16424e-05 0.000722929 -6.56363e-07 0.00392549)
(0.0180348 -0.00143198 1.16754e-05 0.000734567 -6.66188e-07 0.00394507)
(0.0180266 -0.00144126 1.17086e-05 0.00074626 -6.7606e-07 0.00396475)
(0.0180184 -0.00145058 1.1742e-05 0.000758008 -6.85979e-07 0.00398452)
(0.0180101 -0.00145995 1.17755e-05 0.000769811 -6.95944e-07 0.00400438)
(0.0180018 -0.00146936 1.18092e-05 0.000781669 -7.05955e-07 0.00402434)
(0.0179876 -0.00147815 1.18398e-05 0.000793537 -7.15574e-07 0.00404327)
(0.0179688 -0.00148644 1.18681e-05 0.000805421 -7.24889e-07 0.00406139)
(0.0179499 -0.00149477 1.18966e-05 0.000817362 -7.34246e-07 0.00407959)
(0.0179308 -0.00150315 1.19251e-05 0.000829358 -7.43648e-07 0.00409788)
(0.0179117 -0.00151156 1.19538e-05 0.000841412 -7.53095e-07 0.00411626)
(0.0178925 -0.00152001 1.19826e-05 0.000853523 -7.62586e-07 0.00413472)
(0.0178732 -0.00152851 1.20116e-05 0.00086569 -7.72122e-07 0.00415327)
(0.017848 -0.00153624 1.20375e-05 0.000877788 -7.80977e-07 0.0041705)
(0.0178204 -0.00154369 1.20624e-05 0.000889894 -7.89588e-07 0.00418726)
(0.0177926 -0.00155118 1.20873e-05 0.000902056 -7.98239e-07 0.00420409)
(0.0177647 -0.00155871 1.21124e-05 0.000914276 -8.06931e-07 0.004221)
(0.0177367 -0.00156627 1.21376e-05 0.000926553 -8.15664e-07 0.00423799)
(0.0177085 -0.00157387 1.21629e-05 0.000938888 -8.24437e-07 0.00425506)
(0.0176802 -0.0015815 1.21883e-05 0.000951282 -8.33253e-07 0.00427222)
(0.0176464 -0.00158827 1.22108e-05 0.000963502 -8.41078e-07 0.00428778)
(0.0176118 -0.00159495 1.2233e-05 0.000975749 -8.48804e-07 0.00430319)
(0.017577 -0.00160166 1.22553e-05 0.000988053 -8.56565e-07 0.00431867)
(0.017542 -0.0016084 1.22777e-05 0.00100042 -8.64364e-07 0.00433423)
(0.0175068 -0.00161517 1.23002e-05 0.00101284 -8.72199e-07 0.00434986)
(0.0174715 -0.00162198 1.23228e-05 0.00102532 -8.80071e-07 0.00436556)
(0.0174357 -0.00162876 1.23454e-05 0.00103783 -8.87896e-07 0.00438123)
(0.0173958 -0.0016347 1.23652e-05 0.00105008 -8.94495e-07 0.00439526)
(0.0173556 -0.00164067 1.23851e-05 0.00106239 -9.01124e-07 0.00440936)
(0.0173153 -0.00164668 1.24051e-05 0.00107477 -9.07791e-07 0.00442353)
(0.0172747 -0.00165271 1.24253e-05 0.0010872 -9.14488e-07 0.00443778)
(0.017234 -0.00165876 1.24455e-05 0.00109968 -9.21212e-07 0.00445208)
(0.0171931 -0.00166485 1.24658e-05 0.00111223 -9.27968e-07 0.00446644)
(0.0171512 -0.00167074 1.24854e-05 0.00112472 -9.34356e-07 0.00448043)
(0.0171072 -0.00167605 1.25031e-05 0.00113697 -9.39637e-07 0.00449321)
(0.0170629 -0.00168138 1.25208e-05 0.00114927 -9.44942e-07 0.00450605)
(0.0170183 -0.00168674 1.25387e-05 0.00116164 -9.50273e-07 0.00451896)
(0.0169736 -0.00169212 1.25566e-05 0.00117406 -9.55629e-07 0.00453192)
(0.0169287 -0.00169752 1.25746e-05 0.00118653 -9.61008e-07 0.00454494)
(0.0168836 -0.00170295 1.25926e-05 0.00119906 -9.66412e-07 0.00455802)
(0.0168375 -0.00170805 1.26097e-05 0.00121142 -9.71061e-07 0.00457038)
(0.0167904 -0.00171278 1.26256e-05 0.0012236 -9.74894e-07 0.00458196)
(0.0167432 -0.00171753 1.26415e-05 0.00123582 -9.78745e-07 0.0045936)
(0.0166957 -0.00172231 1.26576e-05 0.00124811 -9.82614e-07 0.00460529)
(0.0166479 -0.00172711 1.26737e-05 0.00126045 -9.86502e-07 0.00461703)
(0.0166 -0.00173193 1.26899e-05 0.00127285 -9.90408e-07 0.00462883)
(0.0165518 -0.00173677 1.27061e-05 0.00128531 -9.9433e-07 0.00464068)
(0.0165031 -0.00174114 1.27213e-05 0.00129742 -9.97208e-07 0.00465147)
(0.016454 -0.00174536 1.27361e-05 0.00130946 -9.99715e-07 0.00466191)
(0.0164048 -0.0017496 1.27509e-05 0.00132155 -1.00223e-06 0.0046724)
(0.0163553 -0.00175385 1.27659e-05 0.00133369 -1.00476e-06 0.00468294)
(0.0163055 -0.00175813 1.27809e-05 0.0013459 -1.00731e-06 0.00469353)
(0.0162556 -0.00176242 1.2796e-05 0.00135816 -1.00986e-06 0.00470416)
(0.0162054 -0.00176673 1.28111e-05 0.00137046 -1.01241e-06 0.00471483)
(0.0161554 -0.00177046 1.28249e-05 0.00138225 -1.01397e-06 0.00472415)
(0.0161052 -0.00177422 1.28388e-05 0.00139409 -1.01554e-06 0.00473351)
(0.0160548 -0.00177799 1.28527e-05 0.00140598 -1.01712e-06 0.00474292)
(0.0160041 -0.00178178 1.28667e-05 0.00141793 -1.01871e-06 0.00475237)
(0.0159532 -0.00178559 1.28808e-05 0.00142994 -1.0203e-06 0.00476187)
(0.0159021 -0.00178941 1.28949e-05 0.00144199 -1.0219e-06 0.0047714)
(0.0158511 -0.00179307 1.29086e-05 0.0014539 -1.02336e-06 0.00478055)
(0.0158006 -0.0017964 1.29212e-05 0.00146545 -1.02454e-06 0.00478886)
(0.01575 -0.00179974 1.29339e-05 0.00147704 -1.02572e-06 0.00479722)
(0.0156991 -0.0018031 1.29467e-05 0.00148869 -1.0269e-06 0.00480561)
(0.0156479 -0.00180647 1.29595e-05 0.0015004 -1.02809e-06 0.00481404)
(0.0155965 -0.00180986 1.29724e-05 0.00151216 -1.02929e-06 0.00482251)
(0.0155449 -0.00181327 1.29853e-05 0.00152397 -1.03049e-06 0.00483102)
(0.0154943 -0.00181636 1.29972e-05 0.00153539 -1.03176e-06 0.00483873)
(0.0154439 -0.00181932 1.30086e-05 0.00154664 -1.03305e-06 0.0048461)
(0.0153934 -0.00182229 1.30201e-05 0.00155795 -1.03435e-06 0.00485351)
(0.0153426 -0.00182528 1.30316e-05 0.00156932 -1.03566e-06 0.00486095)
(0.0152915 -0.00182828 1.30432e-05 0.00158073 -1.03697e-06 0.00486842)
(0.0152402 -0.00183129 1.30548e-05 0.00159221 -1.03828e-06 0.00487593)
(0.0151889 -0.00183428 1.30663e-05 0.00160367 -1.03965e-06 0.00488337)
(0.0151394 -0.0018369 1.30764e-05 0.00161455 -1.04143e-06 0.00488983)
(0.0150896 -0.00183953 1.30865e-05 0.00162549 -1.04321e-06 0.00489631)
(0.0150396 -0.00184217 1.30966e-05 0.00163647 -1.04501e-06 0.00490283)
(0.0149893 -0.00184483 1.31068e-05 0.00164751 -1.04681e-06 0.00490938)
(0.0149388 -0.0018475 1.31171e-05 0.00165861 -1.04862e-06 0.00491596)
(0.0148881 -0.00185018 1.31273e-05 0.00166975 -1.05044e-06 0.00492257)
(0.0148385 -0.00185266 1.3137e-05 0.00168057 -1.05262e-06 0.00492865)
(0.0147899 -0.00185499 1.31461e-05 0.00169111 -1.05513e-06 0.00493429)
(0.014741 -0.00185733 1.31553e-05 0.00170169 -1.05765e-06 0.00493995)
(0.0146919 -0.00185967 1.31645e-05 0.00171233 -1.06018e-06 0.00494563)
(0.0146425 -0.00186203 1.31737e-05 0.00172302 -1.06272e-06 0.00495135)
(0.014593 -0.0018644 1.3183e-05 0.00173376 -1.06528e-06 0.00495709)
(0.0145433 -0.00186677 1.31923e-05 0.00174452 -1.06786e-06 0.00496283)
(0.014496 -0.00186883 1.32019e-05 0.00175464 -1.07112e-06 0.00496766)
(0.0144486 -0.00187089 1.32114e-05 0.00176481 -1.0744e-06 0.00497252)
(0.0144009 -0.00187296 1.32211e-05 0.00177502 -1.07769e-06 0.0049774)
(0.014353 -0.00187505 1.32307e-05 0.00178528 -1.08099e-06 0.00498231)
(0.0143048 -0.00187714 1.32405e-05 0.00179559 -1.08432e-06 0.00498724)
(0.0142565 -0.00187924 1.32502e-05 0.00180595 -1.08766e-06 0.00499219)
(0.0142096 -0.00188118 1.32611e-05 0.00181594 -1.09128e-06 0.00499666)
(0.0141638 -0.001883 1.32729e-05 0.00182567 -1.09513e-06 0.00500077)
(0.0141177 -0.00188483 1.32848e-05 0.00183544 -1.099e-06 0.0050049)
(0.0140714 -0.00188667 1.32967e-05 0.00184526 -1.10289e-06 0.00500905)
(0.0140249 -0.00188852 1.33087e-05 0.00185513 -1.1068e-06 0.00501322)
(0.0139782 -0.00189037 1.33207e-05 0.00186504 -1.11072e-06 0.0050174)
(0.0139318 -0.0018922 1.33333e-05 0.00187489 -1.11472e-06 0.00502148)
(0.0138877 -0.0018938 1.33487e-05 0.00188416 -1.11903e-06 0.00502489)
(0.0138434 -0.00189542 1.33642e-05 0.00189349 -1.12335e-06 0.00502832)
(0.013799 -0.00189704 1.33797e-05 0.00190285 -1.1277e-06 0.00503176)
(0.0137543 -0.00189866 1.33953e-05 0.00191226 -1.13207e-06 0.00503522)
(0.0137094 -0.0019003 1.3411e-05 0.00192172 -1.13646e-06 0.00503869)
(0.0136642 -0.00190194 1.34267e-05 0.00193122 -1.14087e-06 0.00504218)
(0.0136214 -0.00190341 1.3446e-05 0.00194019 -1.14564e-06 0.00504509)
(0.013579 -0.00190483 1.34661e-05 0.00194906 -1.15051e-06 0.00504786)
(0.0135364 -0.00190626 1.34864e-05 0.00195797 -1.15541e-06 0.00505064)
(0.0134936 -0.00190769 1.35068e-05 0.00196692 -1.16034e-06 0.00505343)
(0.0134506 -0.00190913 1.35272e-05 0.00197591 -1.16528e-06 0.00505623)
(0.0134074 -0.00191058 1.35478e-05 0.00198494 -1.17025e-06 0.00505905)
(0.0133655 -0.00191193 1.35707e-05 0.00199368 -1.17546e-06 0.00506155)
(0.0133251 -0.00191318 1.35962e-05 0.00200209 -1.18093e-06 0.0050637)
(0.0132844 -0.00191444 1.36217e-05 0.00201054 -1.18643e-06 0.00506586)
(0.0132436 -0.0019157 1.36474e-05 0.00201902 -1.19195e-06 0.00506803)
(0.0132026 -0.00191697 1.36732e-05 0.00202755 -1.19749e-06 0.00507021)
(0.0131613 -0.00191824 1.36991e-05 0.00203612 -1.20306e-06 0.0050724)
(0.0131207 -0.00191948 1.37261e-05 0.00204456 -1.20868e-06 0.00507446)
(0.0130822 -0.00192058 1.37562e-05 0.00205251 -1.21439e-06 0.00507603)
(0.0130435 -0.00192168 1.37865e-05 0.00206051 -1.22013e-06 0.00507761)
(0.0130046 -0.00192279 1.38169e-05 0.00206854 -1.22589e-06 0.0050792)
(0.0129656 -0.0019239 1.38475e-05 0.0020766 -1.23168e-06 0.00508079)
(0.0129264 -0.00192502 1.38782e-05 0.0020847 -1.23749e-06 0.00508239)
(0.012887 -0.00192614 1.39091e-05 0.00209282 -1.24332e-06 0.00508399)
(0.0128505 -0.0019271 1.39423e-05 0.00210032 -1.24863e-06 0.00508502)
(0.0128138 -0.00192807 1.39757e-05 0.00210785 -1.25396e-06 0.00508605)
(0.0127769 -0.00192904 1.40093e-05 0.00211543 -1.25932e-06 0.0050871)
(0.0127399 -0.00193001 1.4043e-05 0.00212303 -1.2647e-06 0.00508814)
(0.0127027 -0.00193099 1.40768e-05 0.00213067 -1.2701e-06 0.00508919)
(0.0126653 -0.00193198 1.41109e-05 0.00213835 -1.27554e-06 0.00509025)
(0.0126303 -0.00193283 1.41445e-05 0.00214548 -1.28012e-06 0.00509083)
(0.0125956 -0.00193368 1.41782e-05 0.00215257 -1.28461e-06 0.00509136)
(0.0125607 -0.00193453 1.42121e-05 0.00215969 -1.28912e-06 0.00509189)
(0.0125256 -0.00193538 1.42461e-05 0.00216684 -1.29366e-06 0.00509243)
(0.0124903 -0.00193623 1.42803e-05 0.00217403 -1.29821e-06 0.00509296)
(0.0124549 -0.00193709 1.43147e-05 0.00218126 -1.30279e-06 0.0050935)
(0.0124216 -0.00193785 1.43453e-05 0.00218801 -1.30666e-06 0.00509365)
(0.0123888 -0.00193859 1.43751e-05 0.00219465 -1.31035e-06 0.0050937)
(0.0123558 -0.00193932 1.44049e-05 0.00220134 -1.31406e-06 0.00509375)
(0.0123226 -0.00194007 1.4435e-05 0.00220805 -1.31778e-06 0.0050938)
(0.0122893 -0.00194081 1.44652e-05 0.0022148 -1.32153e-06 0.00509386)
(0.0122558 -0.00194156 1.44955e-05 0.00222157 -1.32529e-06 0.00509391)
(0.0122243 -0.00194222 1.45193e-05 0.00222791 -1.32859e-06 0.00509362)
(0.0121933 -0.00194286 1.45412e-05 0.00223413 -1.33175e-06 0.00509323)
(0.0121621 -0.0019435 1.45632e-05 0.00224039 -1.33494e-06 0.00509283)
(0.0121308 -0.00194414 1.45853e-05 0.00224667 -1.33813e-06 0.00509243)
(0.0120994 -0.00194478 1.46075e-05 0.00225298 -1.34134e-06 0.00509203)
(0.0120678 -0.00194543 1.46298e-05 0.00225932 -1.34457e-06 0.00509163)
(0.0120381 -0.001946 1.46444e-05 0.00226523 -1.34754e-06 0.0050909)
(0.0120089 -0.00194655 1.46568e-05 0.00227104 -1.35044e-06 0.00509009)
(0.0119795 -0.0019471 1.46694e-05 0.00227688 -1.35336e-06 0.00508927)
(0.01195 -0.00194766 1.4682e-05 0.00228274 -1.3563e-06 0.00508845)
(0.0119204 -0.00194821 1.46946e-05 0.00228863 -1.35925e-06 0.00508762)
(0.0118906 -0.00194877 1.47073e-05 0.00229455 -1.36221e-06 0.00508679)
(0.0118629 -0.00194925 1.4712e-05 0.00230001 -1.36483e-06 0.00508564)
(0.0118354 -0.00194973 1.47153e-05 0.00230542 -1.3674e-06 0.00508443)
(0.0118077 -0.0019502 1.47186e-05 0.00231086 -1.36998e-06 0.00508322)
(0.01178 -0.00195067 1.4722e-05 0.00231632 -1.37257e-06 0.005082)
(0.0117521 -0.00195115 1.47254e-05 0.0023218 -1.37518e-06 0.00508078)
(0.011724 -0.00195163 1.47288e-05 0.00232731 -1.3778e-06 0.00507954)
(0.0116983 -0.00195203 1.47241e-05 0.00233232 -1.37947e-06 0.00507798)
(0.0116724 -0.00195243 1.47193e-05 0.00233734 -1.38114e-06 0.0050764)
(0.0116464 -0.00195283 1.47145e-05 0.00234239 -1.38281e-06 0.00507482)
(0.0116203 -0.00195323 1.47097e-05 0.00234746 -1.3845e-06 0.00507323)
(0.0115941 -0.00195364 1.47049e-05 0.00235255 -1.38619e-06 0.00507163)
(0.0115681 -0.00195403 1.4699e-05 0.00235758 -1.38761e-06 0.00506997)
(0.0115439 -0.00195436 1.46883e-05 0.00236221 -1.38774e-06 0.00506805)
(0.0115196 -0.0019547 1.46777e-05 0.00236686 -1.38787e-06 0.00506613)
(0.0114952 -0.00195504 1.46669e-05 0.00237153 -1.38799e-06 0.0050642)
(0.0114706 -0.00195537 1.46562e-05 0.00237623 -1.38812e-06 0.00506226)
(0.011446 -0.00195571 1.46453e-05 0.00238095 -1.38825e-06 0.00506031)
(0.0114221 -0.00195602 1.46329e-05 0.00238549 -1.38765e-06 0.00505824)
(0.0113994 -0.0019563 1.46183e-05 0.00238977 -1.38606e-06 0.005056)
(0.0113765 -0.00195657 1.46037e-05 0.00239406 -1.38445e-06 0.00505376)
(0.0113536 -0.00195685 1.45889e-05 0.00239838 -1.38284e-06 0.0050515)
(0.0113305 -0.00195713 1.45741e-05 0.00240272 -1.38123e-06 0.00504923)
(0.0113074 -0.0019574 1.45592e-05 0.00240708 -1.3796e-06 0.00504695)
(0.0112856 -0.00195764 1.45408e-05 0.00241114 -1.377e-06 0.0050445)
(0.0112642 -0.00195786 1.45209e-05 0.00241508 -1.37402e-06 0.00504196)
(0.0112428 -0.00195808 1.4501e-05 0.00241904 -1.37103e-06 0.00503942)
(0.0112212 -0.0019583 1.44809e-05 0.00242302 -1.36802e-06 0.00503686)
(0.0111996 -0.00195852 1.44607e-05 0.00242702 -1.365e-06 0.00503429)
(0.011178 -0.00195874 1.44399e-05 0.00243101 -1.36188e-06 0.00503169)
(0.0111581 -0.0019589 1.44114e-05 0.00243461 -1.35785e-06 0.00502889)
(0.011138 -0.00195907 1.43828e-05 0.00243824 -1.35381e-06 0.00502608)
(0.0111179 -0.00195923 1.43541e-05 0.00244188 -1.34974e-06 0.00502326)
(0.0110977 -0.0019594 1.43252e-05 0.00244554 -1.34565e-06 0.00502042)
(0.0110773 -0.00195957 1.42962e-05 0.00244921 -1.34154e-06 0.00501756)
(0.0110578 -0.00195971 1.4263e-05 0.00245271 -1.33685e-06 0.00501461)
(0.011039 -0.00195983 1.42256e-05 0.00245602 -1.33154e-06 0.00501155)
(0.0110202 -0.00195995 1.41879e-05 0.00245934 -1.3262e-06 0.00500848)
(0.0110013 -0.00196007 1.41501e-05 0.00246268 -1.32084e-06 0.0050054)
(0.0109823 -0.00196019 1.4112e-05 0.00246603 -1.31545e-06 0.00500229)
(0.0109632 -0.0019603 1.40738e-05 0.0024694 -1.31004e-06 0.00499918)
(0.0109456 -0.00196038 1.40324e-05 0.00247243 -1.30332e-06 0.0049959)
(0.010928 -0.00196045 1.39906e-05 0.00247545 -1.2965e-06 0.00499259)
(0.0109104 -0.00196053 1.39485e-05 0.00247849 -1.28964e-06 0.00498927)
(0.0108926 -0.0019606 1.39063e-05 0.00248154 -1.28276e-06 0.00498594)
(0.0108747 -0.00196067 1.38639e-05 0.0024846 -1.27584e-06 0.00498259)
(0.0108575 -0.00196073 1.3822e-05 0.00248752 -1.26833e-06 0.00497916)
(0.010841 -0.00196076 1.37807e-05 0.00249026 -1.26013e-06 0.00497564)
(0.0108245 -0.00196079 1.37392e-05 0.00249301 -1.2519e-06 0.00497211)
(0.0108079 -0.00196082 1.36975e-05 0.00249577 -1.24363e-06 0.00496856)
(0.0107912 -0.00196086 1.36556e-05 0.00249855 -1.23533e-06 0.004965)
(0.0107744 -0.00196089 1.36137e-05 0.00250133 -1.22694e-06 0.00496141)
(0.010759 -0.00196088 1.35759e-05 0.00250381 -1.21745e-06 0.0049577)
(0.0107435 -0.00196088 1.35378e-05 0.0025063 -1.20793e-06 0.00495397)
(0.0107279 -0.00196087 1.34996e-05 0.0025088 -1.19835e-06 0.00495023)
(0.0107122 -0.00196087 1.34613e-05 0.00251131 -1.18873e-06 0.00494646)
(0.0106965 -0.00196087 1.34227e-05 0.00251383 -1.17907e-06 0.00494268)
(0.0106816 -0.00196084 1.33882e-05 0.00251617 -1.1687e-06 0.00493883)
(0.0106671 -0.0019608 1.33556e-05 0.00251841 -1.15794e-06 0.00493493)
(0.0106525 -0.00196077 1.33228e-05 0.00252066 -1.14713e-06 0.004931)
(0.0106378 -0.00196073 1.32899e-05 0.00252292 -1.13627e-06 0.00492706)
(0.010623 -0.00196069 1.32569e-05 0.0025252 -1.12536e-06 0.00492311)
(0.0106086 -0.00196064 1.32263e-05 0.00252738 -1.11438e-06 0.00491911)
(0.010595 -0.00196058 1.32007e-05 0.00252939 -1.10331e-06 0.00491504)
(0.0105813 -0.00196051 1.3175e-05 0.00253141 -1.09218e-06 0.00491096)
(0.0105675 -0.00196045 1.31491e-05 0.00253344 -1.08101e-06 0.00490686)
(0.0105537 -0.00196038 1.31232e-05 0.00253548 -1.06978e-06 0.00490274)
(0.0105399 -0.00196031 1.30976e-05 0.00253751 -1.05857e-06 0.00489859)
(0.0105271 -0.00196022 1.30779e-05 0.0025393 -1.04826e-06 0.00489439)
(0.0105142 -0.00196013 1.30582e-05 0.00254111 -1.03789e-06 0.00489016)
(0.0105013 -0.00196003 1.30383e-05 0.00254292 -1.02748e-06 0.00488591)
(0.0104883 -0.00195994 1.30184e-05 0.00254474 -1.01702e-06 0.00488164)
(0.0104753 -0.00195985 1.29983e-05 0.00254657 -1.00651e-06 0.00487735)
(0.0104631 -0.00195974 1.29797e-05 0.0025482 -9.96889e-07 0.00487301)
(0.010451 -0.00195962 1.29612e-05 0.0025498 -9.87388e-07 0.00486865)
(0.0104388 -0.0019595 1.29426e-05 0.00255141 -9.77841e-07 0.00486427)
(0.0104266 -0.00195938 1.29239e-05 0.00255303 -9.68248e-07 0.00485987)
(0.0104143 -0.00195927 1.29051e-05 0.00255465 -9.5861e-07 0.00485544)
(0.0104027 -0.00195913 1.28849e-05 0.00255613 -9.49376e-07 0.00485099)
(0.0103913 -0.00195899 1.28639e-05 0.00255755 -9.40306e-07 0.00484651)
(0.0103798 -0.00195885 1.28429e-05 0.00255897 -9.31193e-07 0.004842)
(0.0103683 -0.00195871 1.28217e-05 0.0025604 -9.22038e-07 0.00483748)
(0.0103567 -0.00195857 1.28005e-05 0.00256183 -9.12838e-07 0.00483293)
(0.0103456 -0.00195841 1.27775e-05 0.00256316 -9.03684e-07 0.00482837)
(0.0103348 -0.00195825 1.27531e-05 0.0025644 -8.94556e-07 0.00482378)
(0.010324 -0.00195808 1.27286e-05 0.00256565 -8.85383e-07 0.00481917)
(0.0103131 -0.00195792 1.2704e-05 0.0025669 -8.76167e-07 0.00481454)
(0.0103022 -0.00195775 1.26793e-05 0.00256816 -8.66906e-07 0.00480988)
(0.0102916 -0.00195758 1.26534e-05 0.00256933 -8.57343e-07 0.00480521)
(0.0102814 -0.00195739 1.26265e-05 0.00257042 -8.47474e-07 0.00480053)
(0.0102712 -0.0019572 1.25994e-05 0.0025715 -8.37557e-07 0.00479582)
(0.0102609 -0.00195701 1.25722e-05 0.0025726 -8.27593e-07 0.0047911)
(0.0102505 -0.00195682 1.25449e-05 0.00257369 -8.17583e-07 0.00478635)
(0.0102405 -0.00195663 1.25173e-05 0.00257471 -8.07075e-07 0.00478159)
(0.0102308 -0.00195642 1.24895e-05 0.00257564 -7.96035e-07 0.00477682)
(0.0102211 -0.00195621 1.24615e-05 0.00257658 -7.84942e-07 0.00477203)
(0.0102113 -0.001956 1.24334e-05 0.00257752 -7.73795e-07 0.00476721)
(0.0102015 -0.00195578 1.24051e-05 0.00257847 -7.62596e-07 0.00476237)
(0.010192 -0.00195556 1.23773e-05 0.00257934 -7.51077e-07 0.00475753)
(0.0101828 -0.00195533 1.23497e-05 0.00258013 -7.3925e-07 0.00475269)
(0.0101736 -0.0019551 1.23221e-05 0.00258093 -7.27368e-07 0.00474782)
(0.0101643 -0.00195487 1.22943e-05 0.00258173 -7.15431e-07 0.00474293)
(0.010155 -0.00195464 1.22664e-05 0.00258254 -7.03438e-07 0.00473802)
(0.010146 -0.00195439 1.22391e-05 0.00258326 -6.91344e-07 0.00473311)
(0.0101373 -0.00195414 1.22122e-05 0.00258393 -6.79162e-07 0.00472821)
(0.0101285 -0.00195389 1.21852e-05 0.0025846 -6.66924e-07 0.00472327)
(0.0101196 -0.00195364 1.21581e-05 0.00258527 -6.54629e-07 0.00471832)
(0.0101108 -0.00195338 1.21308e-05 0.00258595 -6.42275e-07 0.00471334)
(0.0101023 -0.00195312 1.21039e-05 0.00258653 -6.29541e-07 0.00470838)
(0.0100939 -0.00195284 1.20769e-05 0.00258708 -6.16624e-07 0.00470342)
(0.0100855 -0.00195257 1.20499e-05 0.00258763 -6.03646e-07 0.00469843)
(0.0100771 -0.0019523 1.20227e-05 0.00258819 -5.90608e-07 0.00469342)