/*--------------------------------*- C++ -*----------------------------------*\
| =========                 |                                                 |
| \\      /  F ield         | OpenFOAM: The Open Source CFD Toolbox           |
|  \\    /   O peration     | Version:  v1806                                 |
|   \\  /    A nd           | Web:      www.OpenFOAM.com                      |
|    \\/     M anipulation  |                                                 |
\*---------------------------------------------------------------------------*/
FoamFile
{
    version     2.0;
    format      ascii;
    class       volSymmTensorField;
    location    "10000";
    object      turbulenceProperties:R;
}
// * * * * * * * * * * * * * * * * * * * * * * * * * * * * * * * * * * * * * //

dimensions      [0 2 -2 0 0 0 0];


internalField   nonuniform List<symmTensor> 
1025
(
(4.77214e-06 -4.28275e-09 0 4.77214e-06 0 4.77214e-06)
(6.97746e-05 -3.03442e-07 0 6.97746e-05 0 6.97746e-05)
(0.000212199 -1.72696e-06 0 0.000212199 0 0.000212199)
(0.000433361 -5.52768e-06 0 0.000433361 0 0.000433361)
(0.000733686 -1.40361e-05 0 0.000733686 0 0.000733686)
(0.00111167 -3.18598e-05 0 0.00111167 0 0.00111167)
(0.00156181 -6.72164e-05 0 0.00156181 0 0.00156181)
(0.00207145 -0.000131341 0 0.00207145 0 0.00207145)
(0.00261848 -0.000232539 0 0.00261848 0 0.00261848)
(0.00317398 -0.000367139 0 0.00317398 0 0.00317398)
(0.00371024 -0.000519125 0 0.00371024 0 0.00371024)
(0.00420815 -0.000670534 0 0.00420815 0 0.00420815)
(0.00465884 -0.000809435 0 0.00465884 0 0.00465884)
(0.00506122 -0.000930517 0 0.00506122 0 0.00506122)
(0.00541872 -0.00103288 0 0.00541872 0 0.00541872)
(0.00573669 -0.00111803 0 0.00573669 0 0.00573669)
(0.00602087 -0.00118851 0 0.00602087 0 0.00602087)
(0.00627663 -0.00124708 0 0.00627663 0 0.00627663)
(0.00650856 -0.00129624 0 0.00650856 0 0.00650856)
(0.00672055 -0.00133809 0 0.00672055 0 0.00672055)
(0.00691574 -0.00137429 0 0.00691574 0 0.00691574)
(0.00709671 -0.00140616 0 0.00709671 0 0.00709671)
(0.00726555 -0.00143471 0 0.00726555 0 0.00726555)
(0.00742396 -0.00146072 0 0.00742396 0 0.00742396)
(0.00757335 -0.00148477 0 0.00757335 0 0.00757335)
(0.00771485 -0.00150735 0 0.00771485 0 0.00771485)
(0.00784944 -0.00152881 0 0.00784944 0 0.00784944)
(0.00797791 -0.00154944 0 0.00797791 0 0.00797791)
(0.00810095 -0.00156947 0 0.00810095 0 0.00810095)
(0.00821913 -0.00158909 0 0.00821913 0 0.00821913)
(0.00833297 -0.00160843 0 0.00833297 0 0.00833297)
(0.00844286 -0.00162763 0 0.00844286 0 0.00844286)
(0.0085492 -0.00164677 0 0.0085492 0 0.0085492)
(0.00865231 -0.00166594 0 0.00865231 0 0.00865231)
(0.00875246 -0.00168521 0 0.00875246 0 0.00875246)
(0.0088499 -0.00170463 0 0.0088499 0 0.0088499)
(0.00894486 -0.00172424 0 0.00894486 0 0.00894486)
(0.00903754 -0.00174408 0 0.00903754 0 0.00903754)
(0.00912811 -0.00176419 0 0.00912811 0 0.00912811)
(0.00921674 -0.00178459 0 0.00921674 0 0.00921674)
(0.00930355 -0.00180531 0 0.00930355 0 0.00930355)
(0.00938869 -0.00182636 0 0.00938869 0 0.00938869)
(0.00947228 -0.00184775 0 0.00947228 0 0.00947228)
(0.0095544 -0.00186951 0 0.0095544 0 0.0095544)
(0.00963517 -0.00189164 0 0.00963517 0 0.00963517)
(0.00971467 -0.00191416 0 0.00971467 0 0.00971467)
(0.00979299 -0.00193706 0 0.00979299 0 0.00979299)
(0.00987019 -0.00196036 0 0.00987019 0 0.00987019)
(0.00994635 -0.00198406 0 0.00994635 0 0.00994635)
(0.0100215 -0.00200817 0 0.0100215 0 0.0100215)
(0.0100958 -0.00203268 0 0.0100958 0 0.0100958)
(0.0101692 -0.0020576 0 0.0101692 0 0.0101692)
(0.0102418 -0.00208294 0 0.0102418 0 0.0102418)
(0.0103136 -0.00210869 0 0.0103136 0 0.0103136)
(0.0103847 -0.00213485 0 0.0103847 0 0.0103847)
(0.0104551 -0.00216143 0 0.0104551 0 0.0104551)
(0.0105249 -0.00218842 0 0.0105249 0 0.0105249)
(0.010594 -0.00221583 0 0.010594 0 0.010594)
(0.0106626 -0.00224365 0 0.0106626 0 0.0106626)
(0.0107307 -0.00227188 0 0.0107307 0 0.0107307)
(0.0107982 -0.00230051 0 0.0107982 0 0.0107982)
(0.0108653 -0.00232956 0 0.0108653 0 0.0108653)
(0.0109319 -0.00235902 0 0.0109319 0 0.0109319)
(0.0109981 -0.00238888 0 0.0109981 0 0.0109981)
(0.0110639 -0.00241914 0 0.0110639 0 0.0110639)
(0.0111293 -0.00244981 0 0.0111293 0 0.0111293)
(0.0111943 -0.00248087 0 0.0111943 0 0.0111943)
(0.011259 -0.00251233 0 0.011259 0 0.011259)
(0.0113234 -0.00254419 0 0.0113234 0 0.0113234)
(0.0113875 -0.00257643 0 0.0113875 0 0.0113875)
(0.0114513 -0.00260907 0 0.0114513 0 0.0114513)
(0.0115148 -0.00264209 0 0.0115148 0 0.0115148)
(0.0115781 -0.0026755 0 0.0115781 0 0.0115781)
(0.0116411 -0.00270929 0 0.0116411 0 0.0116411)
(0.011704 -0.00274346 0 0.011704 0 0.011704)
(0.0117666 -0.002778 0 0.0117666 0 0.0117666)
(0.011829 -0.00281292 0 0.011829 0 0.011829)
(0.0118912 -0.0028482 0 0.0118912 0 0.0118912)
(0.0119533 -0.00288386 0 0.0119533 0 0.0119533)
(0.0120152 -0.00291988 0 0.0120152 0 0.0120152)
(0.012077 -0.00295626 0 0.012077 0 0.012077)
(0.0121386 -0.00299301 0 0.0121386 0 0.0121386)
(0.0122001 -0.00303011 0 0.0122001 0 0.0122001)
(0.0122615 -0.00306756 0 0.0122615 0 0.0122615)
(0.0123228 -0.00310537 0 0.0123228 0 0.0123228)
(0.012384 -0.00314352 0 0.012384 0 0.012384)
(0.0124451 -0.00318202 0 0.0124451 0 0.0124451)
(0.0125062 -0.00322087 0 0.0125062 0 0.0125062)
(0.0125671 -0.00326005 0 0.0125671 0 0.0125671)
(0.012628 -0.00329957 0 0.012628 0 0.012628)
(0.0126889 -0.00333943 0 0.0126889 0 0.0126889)
(0.0127497 -0.00337962 0 0.0127497 0 0.0127497)
(0.0128104 -0.00342014 0 0.0128104 0 0.0128104)
(0.0128712 -0.00346099 0 0.0128712 0 0.0128712)
(0.0129319 -0.00350216 0 0.0129319 0 0.0129319)
(0.0129926 -0.00354365 0 0.0129926 0 0.0129926)
(0.0130532 -0.00358547 0 0.0130532 0 0.0130532)
(0.0131139 -0.0036276 0 0.0131139 0 0.0131139)
(0.0131746 -0.00367004 0 0.0131746 0 0.0131746)
(0.0132352 -0.00371279 0 0.0132352 0 0.0132352)
(0.0132959 -0.00375586 0 0.0132959 0 0.0132959)
(0.0133566 -0.00379923 0 0.0133566 0 0.0133566)
(0.0134173 -0.00384291 0 0.0134173 0 0.0134173)
(0.0134781 -0.00388688 0 0.0134781 0 0.0134781)
(0.0135388 -0.00393116 0 0.0135388 0 0.0135388)
(0.0135996 -0.00397573 0 0.0135996 0 0.0135996)
(0.0136605 -0.00402059 0 0.0136605 0 0.0136605)
(0.0137214 -0.00406575 0 0.0137214 0 0.0137214)
(0.0137823 -0.0041112 0 0.0137823 0 0.0137823)
(0.0138433 -0.00415693 0 0.0138433 0 0.0138433)
(0.0139044 -0.00420295 0 0.0139044 0 0.0139044)
(0.0139655 -0.00424925 0 0.0139655 0 0.0139655)
(0.0140267 -0.00429583 0 0.0140267 0 0.0140267)
(0.0140879 -0.00434269 0 0.0140879 0 0.0140879)
(0.0141492 -0.00438983 0 0.0141492 0 0.0141492)
(0.0142106 -0.00443723 0 0.0142106 0 0.0142106)
(0.0142721 -0.00448491 0 0.0142721 0 0.0142721)
(0.0143337 -0.00453286 0 0.0143337 0 0.0143337)
(0.0143953 -0.00458107 0 0.0143953 0 0.0143953)
(0.0144571 -0.00462955 0 0.0144571 0 0.0144571)
(0.0145189 -0.00467829 0 0.0145189 0 0.0145189)
(0.0145808 -0.0047273 0 0.0145808 0 0.0145808)
(0.0146429 -0.00477655 0 0.0146429 0 0.0146429)
(0.014705 -0.00482607 0 0.014705 0 0.014705)
(0.0147672 -0.00487583 0 0.0147672 0 0.0147672)
(0.0148296 -0.00492585 0 0.0148296 0 0.0148296)
(0.014892 -0.00497612 0 0.014892 0 0.014892)
(0.0149546 -0.00502664 0 0.0149546 0 0.0149546)
(0.0150173 -0.0050774 0 0.0150173 0 0.0150173)
(0.0150801 -0.00512841 0 0.0150801 0 0.0150801)
(0.015143 -0.00517966 0 0.015143 0 0.015143)
(0.015206 -0.00523115 0 0.015206 0 0.015206)
(0.0152692 -0.00528287 0 0.0152692 0 0.0152692)
(0.0153325 -0.00533483 0 0.0153325 0 0.0153325)
(0.0153959 -0.00538702 0 0.0153959 0 0.0153959)
(0.0154595 -0.00543945 0 0.0154595 0 0.0154595)
(0.0155232 -0.00549211 0 0.0155232 0 0.0155232)
(0.015587 -0.005545 0 0.015587 0 0.015587)
(0.0156509 -0.00559811 0 0.0156509 0 0.0156509)
(0.0157151 -0.00565144 0 0.0157151 0 0.0157151)
(0.0157793 -0.005705 0 0.0157793 0 0.0157793)
(0.0158437 -0.00575878 0 0.0158437 0 0.0158437)
(0.0159082 -0.00581278 0 0.0159082 0 0.0159082)
(0.0159729 -0.005867 0 0.0159729 0 0.0159729)
(0.0160378 -0.00592143 0 0.0160378 0 0.0160378)
(0.0161027 -0.00597607 0 0.0161027 0 0.0161027)
(0.0161679 -0.00603093 0 0.0161679 0 0.0161679)
(0.0162332 -0.006086 0 0.0162332 0 0.0162332)
(0.0162986 -0.00614128 0 0.0162986 0 0.0162986)
(0.0163642 -0.00619676 0 0.0163642 0 0.0163642)
(0.01643 -0.00625245 0 0.01643 0 0.01643)
(0.0164959 -0.00630835 0 0.0164959 0 0.0164959)
(0.016562 -0.00636444 0 0.016562 0 0.016562)
(0.0166283 -0.00642073 0 0.0166283 0 0.0166283)
(0.0166947 -0.00647723 0 0.0166947 0 0.0166947)
(0.0167613 -0.00653392 0 0.0167613 0 0.0167613)
(0.016828 -0.00659081 0 0.016828 0 0.016828)
(0.0168949 -0.00664789 0 0.0168949 0 0.0168949)
(0.016962 -0.00670516 0 0.016962 0 0.016962)
(0.0170293 -0.00676263 0 0.0170293 0 0.0170293)
(0.0170967 -0.00682028 0 0.0170967 0 0.0170967)
(0.0171644 -0.00687812 0 0.0171644 0 0.0171644)
(0.0172321 -0.00693615 0 0.0172321 0 0.0172321)
(0.0173001 -0.00699436 0 0.0173001 0 0.0173001)
(0.0173683 -0.00705276 0 0.0173683 0 0.0173683)
(0.0174366 -0.00711133 0 0.0174366 0 0.0174366)
(0.0175051 -0.00717009 0 0.0175051 0 0.0175051)
(0.0175738 -0.00722903 0 0.0175738 0 0.0175738)
(0.0176426 -0.00728814 0 0.0176426 0 0.0176426)
(0.0177117 -0.00734744 0 0.0177117 0 0.0177117)
(0.0177809 -0.00740691 0 0.0177809 0 0.0177809)
(0.0178503 -0.00746653 0 0.0178503 0 0.0178503)
(0.01792 -0.00752632 0 0.01792 0 0.01792)
(0.0179897 -0.0075863 0 0.0179897 0 0.0179897)
(0.0180597 -0.00764646 0 0.0180597 0 0.0180597)
(0.0181299 -0.00770677 0 0.0181299 0 0.0181299)
(0.0182002 -0.00776725 0 0.0182002 0 0.0182002)
(0.0182708 -0.00782789 0 0.0182708 0 0.0182708)
(0.0183415 -0.00788869 0 0.0183415 0 0.0183415)
(0.0184125 -0.00794965 0 0.0184125 0 0.0184125)
(0.0184836 -0.00801079 0 0.0184836 0 0.0184836)
(0.0185549 -0.0080721 0 0.0185549 0 0.0185549)
(0.0186264 -0.00813355 0 0.0186264 0 0.0186264)
(0.0186981 -0.00819515 0 0.0186981 0 0.0186981)
(0.01877 -0.00825691 0 0.01877 0 0.01877)
(0.0188421 -0.00831881 0 0.0188421 0 0.0188421)
(0.0189144 -0.00838086 0 0.0189144 0 0.0189144)
(0.0189869 -0.00844308 0 0.0189869 0 0.0189869)
(0.0190595 -0.00850547 0 0.0190595 0 0.0190595)
(0.0191324 -0.00856799 0 0.0191324 0 0.0191324)
(0.0192055 -0.00863065 0 0.0192055 0 0.0192055)
(0.0192788 -0.00869345 0 0.0192788 0 0.0192788)
(0.0193523 -0.00875641 0 0.0193523 0 0.0193523)
(0.019426 -0.0088195 0 0.019426 0 0.019426)
(0.0194999 -0.00888274 0 0.0194999 0 0.0194999)
(0.019574 -0.00894612 0 0.019574 0 0.019574)
(0.0196483 -0.00900963 0 0.0196483 0 0.0196483)
(0.0197228 -0.00907329 0 0.0197228 0 0.0197228)
(0.0197975 -0.00913709 0 0.0197975 0 0.0197975)
(0.0198724 -0.00920101 0 0.0198724 0 0.0198724)
(0.0199475 -0.00926509 0 0.0199475 0 0.0199475)
(0.0200228 -0.00932932 0 0.0200228 0 0.0200228)
(0.0200983 -0.00939365 0 0.0200983 0 0.0200983)
(0.0201741 -0.00945811 0 0.0201741 0 0.0201741)
(0.02025 -0.0095227 0 0.02025 0 0.02025)
(0.0203262 -0.00958742 0 0.0203262 0 0.0203262)
(0.0204025 -0.00965228 0 0.0204025 0 0.0204025)
(0.0204791 -0.00971726 0 0.0204791 0 0.0204791)
(0.0205558 -0.00978236 0 0.0205558 0 0.0205558)
(0.0206328 -0.00984757 0 0.0206328 0 0.0206328)
(0.02071 -0.00991292 0 0.02071 0 0.02071)
(0.0207874 -0.0099784 0 0.0207874 0 0.0207874)
(0.020865 -0.010044 0 0.020865 0 0.020865)
(0.0209428 -0.0101097 0 0.0209428 0 0.0209428)
(0.0210209 -0.0101756 0 0.0210209 0 0.0210209)
(0.0210991 -0.0102415 0 0.0210991 0 0.0210991)
(0.0211775 -0.0103076 0 0.0211775 0 0.0211775)
(0.0212561 -0.0103738 0 0.0212561 0 0.0212561)
(0.021335 -0.0104401 0 0.021335 0 0.021335)
(0.0214141 -0.0105065 0 0.0214141 0 0.0214141)
(0.0214934 -0.010573 0 0.0214934 0 0.0214934)
(0.0215729 -0.0106396 0 0.0215729 0 0.0215729)
(0.0216526 -0.0107064 0 0.0216526 0 0.0216526)
(0.0217325 -0.0107733 0 0.0217325 0 0.0217325)
(0.0218126 -0.0108402 0 0.0218126 0 0.0218126)
(0.021893 -0.0109073 0 0.021893 0 0.021893)
(0.0219735 -0.0109744 0 0.0219735 0 0.0219735)
(0.0220543 -0.0110417 0 0.0220543 0 0.0220543)
(0.0221353 -0.0111091 0 0.0221353 0 0.0221353)
(0.0222165 -0.0111766 0 0.0222165 0 0.0222165)
(0.0222979 -0.0112442 0 0.0222979 0 0.0222979)
(0.0223795 -0.0113119 0 0.0223795 0 0.0223795)
(0.0224613 -0.0113796 0 0.0224613 0 0.0224613)
(0.0225434 -0.0114475 0 0.0225434 0 0.0225434)
(0.0226256 -0.0115155 0 0.0226256 0 0.0226256)
(0.0227081 -0.0115836 0 0.0227081 0 0.0227081)
(0.0227907 -0.0116518 0 0.0227907 0 0.0227907)
(0.0228736 -0.01172 0 0.0228736 0 0.0228736)
(0.0229567 -0.0117884 0 0.0229567 0 0.0229567)
(0.0230401 -0.0118568 0 0.0230401 0 0.0230401)
(0.0231236 -0.0119254 0 0.0231236 0 0.0231236)
(0.0232073 -0.011994 0 0.0232073 0 0.0232073)
(0.0232913 -0.0120627 0 0.0232913 0 0.0232913)
(0.0233755 -0.0121315 0 0.0233755 0 0.0233755)
(0.0234598 -0.0122004 0 0.0234598 0 0.0234598)
(0.0235444 -0.0122694 0 0.0235444 0 0.0235444)
(0.0236292 -0.0123384 0 0.0236292 0 0.0236292)
(0.0237142 -0.0124076 0 0.0237142 0 0.0237142)
(0.0237995 -0.0124768 0 0.0237995 0 0.0237995)
(0.0238849 -0.0125461 0 0.0238849 0 0.0238849)
(0.0239706 -0.0126155 0 0.0239706 0 0.0239706)
(0.0240565 -0.012685 0 0.0240565 0 0.0240565)
(0.0241425 -0.0127546 0 0.0241425 0 0.0241425)
(0.0242288 -0.0128242 0 0.0242288 0 0.0242288)
(0.0243153 -0.0128939 0 0.0243153 0 0.0243153)
(0.0244021 -0.0129636 0 0.0244021 0 0.0244021)
(0.024489 -0.0130335 0 0.024489 0 0.024489)
(0.0245761 -0.0131034 0 0.0245761 0 0.0245761)
(0.0246635 -0.0131734 0 0.0246635 0 0.0246635)
(0.024751 -0.0132435 0 0.024751 0 0.024751)
(0.0248388 -0.0133137 0 0.0248388 0 0.0248388)
(0.0249268 -0.0133839 0 0.0249268 0 0.0249268)
(0.025015 -0.0134541 0 0.025015 0 0.025015)
(0.0251034 -0.0135245 0 0.0251034 0 0.0251034)
(0.025192 -0.0135949 0 0.025192 0 0.025192)
(0.0252808 -0.0136654 0 0.0252808 0 0.0252808)
(0.0253699 -0.0137359 0 0.0253699 0 0.0253699)
(0.0254591 -0.0138065 0 0.0254591 0 0.0254591)
(0.0255486 -0.0138772 0 0.0255486 0 0.0255486)
(0.0256382 -0.013948 0 0.0256382 0 0.0256382)
(0.0257281 -0.0140188 0 0.0257281 0 0.0257281)
(0.0258182 -0.0140896 0 0.0258182 0 0.0258182)
(0.0259085 -0.0141605 0 0.0259085 0 0.0259085)
(0.0259989 -0.0142315 0 0.0259989 0 0.0259989)
(0.0260896 -0.0143026 0 0.0260896 0 0.0260896)
(0.0261805 -0.0143736 0 0.0261805 0 0.0261805)
(0.0262716 -0.0144448 0 0.0262716 0 0.0262716)
(0.026363 -0.014516 0 0.026363 0 0.026363)
(0.0264545 -0.0145872 0 0.0264545 0 0.0264545)
(0.0265462 -0.0146585 0 0.0265462 0 0.0265462)
(0.0266382 -0.0147299 0 0.0266382 0 0.0266382)
(0.0267303 -0.0148013 0 0.0267303 0 0.0267303)
(0.0268227 -0.0148727 0 0.0268227 0 0.0268227)
(0.0269153 -0.0149442 0 0.0269153 0 0.0269153)
(0.027008 -0.0150158 0 0.027008 0 0.027008)
(0.0271009 -0.0150874 0 0.0271009 0 0.0271009)
(0.0271941 -0.0151591 0 0.0271941 0 0.0271941)
(0.0272875 -0.0152308 0 0.0272875 0 0.0272875)
(0.0273811 -0.0153025 0 0.0273811 0 0.0273811)
(0.0274748 -0.0153743 0 0.0274748 0 0.0274748)
(0.0275688 -0.0154461 0 0.0275688 0 0.0275688)
(0.027663 -0.0155179 0 0.027663 0 0.027663)
(0.0277574 -0.0155898 0 0.0277574 0 0.0277574)
(0.027852 -0.0156618 0 0.027852 0 0.027852)
(0.0279467 -0.0157338 0 0.0279467 0 0.0279467)
(0.0280417 -0.0158058 0 0.0280417 0 0.0280417)
(0.0281369 -0.0158778 0 0.0281369 0 0.0281369)
(0.0282323 -0.0159499 0 0.0282323 0 0.0282323)
(0.0283278 -0.016022 0 0.0283278 0 0.0283278)
(0.0284236 -0.0160942 0 0.0284236 0 0.0284236)
(0.0285196 -0.0161664 0 0.0285196 0 0.0285196)
(0.0286158 -0.0162386 0 0.0286158 0 0.0286158)
(0.0287121 -0.0163109 0 0.0287121 0 0.0287121)
(0.0288087 -0.0163832 0 0.0288087 0 0.0288087)
(0.0289055 -0.0164555 0 0.0289055 0 0.0289055)
(0.0290024 -0.0165278 0 0.0290024 0 0.0290024)
(0.0290996 -0.0166002 0 0.0290996 0 0.0290996)
(0.0291969 -0.0166726 0 0.0291969 0 0.0291969)
(0.0292944 -0.016745 0 0.0292944 0 0.0292944)
(0.0293921 -0.0168175 0 0.0293921 0 0.0293921)
(0.0294901 -0.0168899 0 0.0294901 0 0.0294901)
(0.0295882 -0.0169624 0 0.0295882 0 0.0295882)
(0.0296865 -0.0170349 0 0.0296865 0 0.0296865)
(0.029785 -0.0171075 0 0.029785 0 0.029785)
(0.0298836 -0.01718 0 0.0298836 0 0.0298836)
(0.0299825 -0.0172526 0 0.0299825 0 0.0299825)
(0.0300816 -0.0173252 0 0.0300816 0 0.0300816)
(0.0301808 -0.0173978 0 0.0301808 0 0.0301808)
(0.0302803 -0.0174705 0 0.0302803 0 0.0302803)
(0.0303799 -0.0175431 0 0.0303799 0 0.0303799)
(0.0304797 -0.0176158 0 0.0304797 0 0.0304797)
(0.0305797 -0.0176884 0 0.0305797 0 0.0305797)
(0.0306799 -0.0177611 0 0.0306799 0 0.0306799)
(0.0307802 -0.0178338 0 0.0307802 0 0.0307802)
(0.0308808 -0.0179065 0 0.0308808 0 0.0308808)
(0.0309815 -0.0179793 0 0.0309815 0 0.0309815)
(0.0310824 -0.018052 0 0.0310824 0 0.0310824)
(0.0311835 -0.0181247 0 0.0311835 0 0.0311835)
(0.0312848 -0.0181975 0 0.0312848 0 0.0312848)
(0.0313862 -0.0182702 0 0.0313862 0 0.0313862)
(0.0314879 -0.018343 0 0.0314879 0 0.0314879)
(0.0315897 -0.0184158 0 0.0315897 0 0.0315897)
(0.0316917 -0.0184885 0 0.0316917 0 0.0316917)
(0.0317938 -0.0185613 0 0.0317938 0 0.0317938)
(0.0318962 -0.0186341 0 0.0318962 0 0.0318962)
(0.0319987 -0.0187069 0 0.0319987 0 0.0319987)
(0.0321014 -0.0187796 0 0.0321014 0 0.0321014)
(0.0322042 -0.0188524 0 0.0322042 0 0.0322042)
(0.0323073 -0.0189252 0 0.0323073 0 0.0323073)
(0.0324105 -0.0189979 0 0.0324105 0 0.0324105)
(0.0325139 -0.0190707 0 0.0325139 0 0.0325139)
(0.0326175 -0.0191435 0 0.0326175 0 0.0326175)
(0.0327212 -0.0192162 0 0.0327212 0 0.0327212)
(0.0328251 -0.019289 0 0.0328251 0 0.0328251)
(0.0329292 -0.0193617 0 0.0329292 0 0.0329292)
(0.0330334 -0.0194345 0 0.0330334 0 0.0330334)
(0.0331378 -0.0195072 0 0.0331378 0 0.0331378)
(0.0332424 -0.0195799 0 0.0332424 0 0.0332424)
(0.0333471 -0.0196526 0 0.0333471 0 0.0333471)
(0.033452 -0.0197253 0 0.033452 0 0.033452)
(0.0335571 -0.019798 0 0.0335571 0 0.0335571)
(0.0336623 -0.0198707 0 0.0336623 0 0.0336623)
(0.0337677 -0.0199433 0 0.0337677 0 0.0337677)
(0.0338733 -0.020016 0 0.0338733 0 0.0338733)
(0.033979 -0.0200886 0 0.033979 0 0.033979)
(0.0340848 -0.0201612 0 0.0340848 0 0.0340848)
(0.0341909 -0.0202338 0 0.0341909 0 0.0341909)
(0.0342971 -0.0203064 0 0.0342971 0 0.0342971)
(0.0344034 -0.0203789 0 0.0344034 0 0.0344034)
(0.0345099 -0.0204515 0 0.0345099 0 0.0345099)
(0.0346166 -0.020524 0 0.0346166 0 0.0346166)
(0.0347234 -0.0205964 0 0.0347234 0 0.0347234)
(0.0348304 -0.0206689 0 0.0348304 0 0.0348304)
(0.0349375 -0.0207414 0 0.0349375 0 0.0349375)
(0.0350447 -0.0208138 0 0.0350447 0 0.0350447)
(0.0351521 -0.0208862 0 0.0351521 0 0.0351521)
(0.0352597 -0.0209585 0 0.0352597 0 0.0352597)
(0.0353674 -0.0210309 0 0.0353674 0 0.0353674)
(0.0354753 -0.0211032 0 0.0354753 0 0.0354753)
(0.0355833 -0.0211754 0 0.0355833 0 0.0355833)
(0.0356914 -0.0212477 0 0.0356914 0 0.0356914)
(0.0357997 -0.0213199 0 0.0357997 0 0.0357997)
(0.0359082 -0.0213921 0 0.0359082 0 0.0359082)
(0.0360168 -0.0214642 0 0.0360168 0 0.0360168)
(0.0361255 -0.0215363 0 0.0361255 0 0.0361255)
(0.0362343 -0.0216084 0 0.0362343 0 0.0362343)
(0.0363433 -0.0216804 0 0.0363433 0 0.0363433)
(0.0364525 -0.0217524 0 0.0364525 0 0.0364525)
(0.0365618 -0.0218244 0 0.0365618 0 0.0365618)
(0.0366712 -0.0218963 0 0.0366712 0 0.0366712)
(0.0367807 -0.0219682 0 0.0367807 0 0.0367807)
(0.0368904 -0.02204 0 0.0368904 0 0.0368904)
(0.0370002 -0.0221118 0 0.0370002 0 0.0370002)
(0.0371101 -0.0221836 0 0.0371101 0 0.0371101)
(0.0372202 -0.0222553 0 0.0372202 0 0.0372202)
(0.0373304 -0.022327 0 0.0373304 0 0.0373304)
(0.0374407 -0.0223986 0 0.0374407 0 0.0374407)
(0.0375512 -0.0224701 0 0.0375512 0 0.0375512)
(0.0376618 -0.0225416 0 0.0376618 0 0.0376618)
(0.0377725 -0.0226131 0 0.0377725 0 0.0377725)
(0.0378833 -0.0226845 0 0.0378833 0 0.0378833)
(0.0379942 -0.0227559 0 0.0379942 0 0.0379942)
(0.0381053 -0.0228272 0 0.0381053 0 0.0381053)
(0.0382165 -0.0228985 0 0.0382165 0 0.0382165)
(0.0383278 -0.0229697 0 0.0383278 0 0.0383278)
(0.0384392 -0.0230409 0 0.0384392 0 0.0384392)
(0.0385507 -0.023112 0 0.0385507 0 0.0385507)
(0.0386624 -0.023183 0 0.0386624 0 0.0386624)
(0.0387741 -0.023254 0 0.0387741 0 0.0387741)
(0.038886 -0.0233249 0 0.038886 0 0.038886)
(0.038998 -0.0233958 0 0.038998 0 0.038998)
(0.0391101 -0.0234666 0 0.0391101 0 0.0391101)
(0.0392223 -0.0235373 0 0.0392223 0 0.0392223)
(0.0393346 -0.023608 0 0.0393346 0 0.0393346)
(0.039447 -0.0236786 0 0.039447 0 0.039447)
(0.0395595 -0.0237492 0 0.0395595 0 0.0395595)
(0.0396721 -0.0238196 0 0.0396721 0 0.0396721)
(0.0397848 -0.0238901 0 0.0397848 0 0.0397848)
(0.0398976 -0.0239604 0 0.0398976 0 0.0398976)
(0.0400105 -0.0240307 0 0.0400105 0 0.0400105)
(0.0401235 -0.0241009 0 0.0401235 0 0.0401235)
(0.0402366 -0.024171 0 0.0402366 0 0.0402366)
(0.0403498 -0.0242411 0 0.0403498 0 0.0403498)
(0.0404631 -0.0243111 0 0.0404631 0 0.0404631)
(0.0405765 -0.024381 0 0.0405765 0 0.0405765)
(0.0406899 -0.0244508 0 0.0406899 0 0.0406899)
(0.0408035 -0.0245206 0 0.0408035 0 0.0408035)
(0.0409171 -0.0245903 0 0.0409171 0 0.0409171)
(0.0410308 -0.0246599 0 0.0410308 0 0.0410308)
(0.0411446 -0.0247294 0 0.0411446 0 0.0411446)
(0.0412585 -0.0247988 0 0.0412585 0 0.0412585)
(0.0413725 -0.0248682 0 0.0413725 0 0.0413725)
(0.0414865 -0.0249375 0 0.0414865 0 0.0414865)
(0.0416007 -0.0250066 0 0.0416007 0 0.0416007)
(0.0417148 -0.0250757 0 0.0417148 0 0.0417148)
(0.0418291 -0.0251448 0 0.0418291 0 0.0418291)
(0.0419434 -0.0252137 0 0.0419434 0 0.0419434)
(0.0420578 -0.0252825 0 0.0420578 0 0.0420578)
(0.0421723 -0.0253513 0 0.0421723 0 0.0421723)
(0.0422869 -0.0254199 0 0.0422869 0 0.0422869)
(0.0424015 -0.0254885 0 0.0424015 0 0.0424015)
(0.0425161 -0.025557 0 0.0425161 0 0.0425161)
(0.0426309 -0.0256254 0 0.0426309 0 0.0426309)
(0.0427457 -0.0256937 0 0.0427457 0 0.0427457)
(0.0428606 -0.0257618 0 0.0428606 0 0.0428606)
(0.0429755 -0.0258299 0 0.0429755 0 0.0429755)
(0.0430904 -0.0258979 0 0.0430904 0 0.0430904)
(0.0432054 -0.0259658 0 0.0432054 0 0.0432054)
(0.0433205 -0.0260336 0 0.0433205 0 0.0433205)
(0.0434356 -0.0261013 0 0.0434356 0 0.0434356)
(0.0435508 -0.0261689 0 0.0435508 0 0.0435508)
(0.043666 -0.0262363 0 0.043666 0 0.043666)
(0.0437813 -0.0263037 0 0.0437813 0 0.0437813)
(0.0438966 -0.026371 0 0.0438966 0 0.0438966)
(0.044012 -0.0264381 0 0.044012 0 0.044012)
(0.0441273 -0.0265052 0 0.0441273 0 0.0441273)
(0.0442428 -0.0265721 0 0.0442428 0 0.0442428)
(0.0443582 -0.0266389 0 0.0443582 0 0.0443582)
(0.0444737 -0.0267056 0 0.0444737 0 0.0444737)
(0.0445892 -0.0267722 0 0.0445892 0 0.0445892)
(0.0447048 -0.0268387 0 0.0447048 0 0.0447048)
(0.0448204 -0.0269051 0 0.0448204 0 0.0448204)
(0.044936 -0.0269713 0 0.044936 0 0.044936)
(0.0450516 -0.0270374 0 0.0450516 0 0.0450516)
(0.0451673 -0.0271034 0 0.0451673 0 0.0451673)
(0.0452829 -0.0271693 0 0.0452829 0 0.0452829)
(0.0453986 -0.0272351 0 0.0453986 0 0.0453986)
(0.0455143 -0.0273007 0 0.0455143 0 0.0455143)
(0.0456301 -0.0273662 0 0.0456301 0 0.0456301)
(0.0457458 -0.0274316 0 0.0457458 0 0.0457458)
(0.0458616 -0.0274968 0 0.0458616 0 0.0458616)
(0.0459773 -0.027562 0 0.0459773 0 0.0459773)
(0.046093 -0.027627 0 0.046093 0 0.046093)
(0.0462088 -0.0276918 0 0.0462088 0 0.0462088)
(0.0463246 -0.0277565 0 0.0463246 0 0.0463246)
(0.0464404 -0.0278211 0 0.0464404 0 0.0464404)
(0.0465561 -0.0278856 0 0.0465561 0 0.0465561)
(0.0466719 -0.0279499 0 0.0466719 0 0.0466719)
(0.0467876 -0.0280141 0 0.0467876 0 0.0467876)
(0.0469034 -0.0280781 0 0.0469034 0 0.0469034)
(0.0470191 -0.028142 0 0.0470191 0 0.0470191)
(0.0471348 -0.0282058 0 0.0471348 0 0.0471348)
(0.0472505 -0.0282694 0 0.0472505 0 0.0472505)
(0.0473662 -0.0283329 0 0.0473662 0 0.0473662)
(0.0474819 -0.0283962 0 0.0474819 0 0.0474819)
(0.0475975 -0.0284594 0 0.0475975 0 0.0475975)
(0.0477131 -0.0285224 0 0.0477131 0 0.0477131)
(0.0478287 -0.0285853 0 0.0478287 0 0.0478287)
(0.0479443 -0.028648 0 0.0479443 0 0.0479443)
(0.0480598 -0.0287106 0 0.0480598 0 0.0480598)
(0.0481753 -0.028773 0 0.0481753 0 0.0481753)
(0.0482908 -0.0288353 0 0.0482908 0 0.0482908)
(0.0484062 -0.0288974 0 0.0484062 0 0.0484062)
(0.0485216 -0.0289593 0 0.0485216 0 0.0485216)
(0.0486369 -0.0290211 0 0.0486369 0 0.0486369)
(0.0487522 -0.0290827 0 0.0487522 0 0.0487522)
(0.0488675 -0.0291442 0 0.0488675 0 0.0488675)
(0.0489827 -0.0292055 0 0.0489827 0 0.0489827)
(0.0490978 -0.0292666 0 0.0490978 0 0.0490978)
(0.0492129 -0.0293276 0 0.0492129 0 0.0492129)
(0.049328 -0.0293884 0 0.049328 0 0.049328)
(0.0494429 -0.029449 0 0.0494429 0 0.0494429)
(0.0495579 -0.0295095 0 0.0495579 0 0.0495579)
(0.0496727 -0.0295697 0 0.0496727 0 0.0496727)
(0.0497875 -0.0296298 0 0.0497875 0 0.0497875)
(0.0499022 -0.0296898 0 0.0499022 0 0.0499022)
(0.0500168 -0.0297495 0 0.0500168 0 0.0500168)
(0.0501314 -0.0298091 0 0.0501314 0 0.0501314)
(0.0502459 -0.0298685 0 0.0502459 0 0.0502459)
(0.0503603 -0.0299278 0 0.0503603 0 0.0503603)
(0.0504746 -0.0299868 0 0.0504746 0 0.0504746)
(0.0505889 -0.0300456 0 0.0505889 0 0.0505889)
(0.050703 -0.0301043 0 0.050703 0 0.050703)
(0.0508171 -0.0301628 0 0.0508171 0 0.0508171)
(0.0509311 -0.0302211 0 0.0509311 0 0.0509311)
(0.0510449 -0.0302792 0 0.0510449 0 0.0510449)
(0.0511587 -0.0303373 0 0.0511587 0 0.0511587)
(0.0512724 -0.0303952 0 0.0512724 0 0.0512724)
(0.051386 -0.0304531 0 0.051386 0 0.051386)
(0.0514994 -0.030511 0 0.0514994 0 0.0514994)
(0.0516128 -0.0305689 0 0.0516128 0 0.0516128)
(0.0517261 -0.0306275 0 0.0517261 0 0.0517261)
(0.0518392 -0.0306859 0 0.0518392 0 0.0518392)
(0.0519522 -0.030744 0 0.0519522 0 0.0519522)
(0.0520651 -0.0308017 0 0.0520651 0 0.0520651)
(0.0521779 -0.0308581 0 0.0521779 0 0.0521779)
(0.0522906 -0.0309142 0 0.0522906 0 0.0522906)
(0.0524032 -0.0309701 0 0.0524032 0 0.0524032)
(0.0525156 -0.0310256 0 0.0525156 0 0.0525156)
(0.0526278 -0.031081 0 0.0526278 0 0.0526278)
(0.05274 -0.0311361 0 0.05274 0 0.05274)
(0.052852 -0.031191 0 0.052852 0 0.052852)
(0.0529638 -0.0312456 0 0.0529638 0 0.0529638)
(0.0530755 -0.0313001 0 0.0530755 0 0.0530755)
(0.0531871 -0.0313543 0 0.0531871 0 0.0531871)
(0.0532985 -0.0314083 0 0.0532985 0 0.0532985)
(0.0534097 -0.031462 0 0.0534097 0 0.0534097)
(0.0535208 -0.0315156 0 0.0535208 0 0.0535208)
(0.0536317 -0.0315689 0 0.0536317 0 0.0536317)
(0.0537425 -0.031622 0 0.0537425 0 0.0537425)
(0.0538531 -0.0316748 0 0.0538531 0 0.0538531)
(0.0539635 -0.0317275 0 0.0539635 0 0.0539635)
(0.0540738 -0.0317799 0 0.0540738 0 0.0540738)
(0.0541838 -0.0318321 0 0.0541838 0 0.0541838)
(0.0542937 -0.031884 0 0.0542937 0 0.0542937)
(0.0544034 -0.0319357 0 0.0544034 0 0.0544034)
(0.0545129 -0.0319872 0 0.0545129 0 0.0545129)
(0.0546223 -0.0320384 0 0.0546223 0 0.0546223)
(0.0547314 -0.0320894 0 0.0547314 0 0.0547314)
(0.0548404 -0.0321401 0 0.0548404 0 0.0548404)
(0.0549491 -0.0321906 0 0.0549491 0 0.0549491)
(0.0550576 -0.0322408 0 0.0550576 0 0.0550576)
(0.055166 -0.0322909 0 0.055166 0 0.055166)
(0.0552741 -0.0323406 0 0.0552741 0 0.0552741)
(0.055382 -0.0323901 0 0.055382 0 0.055382)
(0.0554897 -0.0324394 0 0.0554897 0 0.0554897)
(0.0555972 -0.0324884 0 0.0555972 0 0.0555972)
(0.0557045 -0.0325371 0 0.0557045 0 0.0557045)
(0.0558115 -0.0325856 0 0.0558115 0 0.0558115)
(0.0559183 -0.0326338 0 0.0559183 0 0.0559183)
(0.0560249 -0.0326818 0 0.0560249 0 0.0560249)
(0.0561312 -0.0327295 0 0.0561312 0 0.0561312)
(0.0562373 -0.0327769 0 0.0562373 0 0.0562373)
(0.0563431 -0.0328241 0 0.0563431 0 0.0563431)
(0.0564488 -0.032871 0 0.0564488 0 0.0564488)
(0.0565542 -0.0329176 0 0.0565542 0 0.0565542)
(0.0566592 -0.032964 0 0.0566592 0 0.0566592)
(0.0567641 -0.0330102 0 0.0567641 0 0.0567641)
(0.0568687 -0.033056 0 0.0568687 0 0.0568687)
(0.0569731 -0.0331015 0 0.0569731 0 0.0569731)
(0.0570771 -0.0331468 0 0.0570771 0 0.0570771)
(0.0571809 -0.0331918 0 0.0571809 0 0.0571809)
(0.0572845 -0.0332365 0 0.0572845 0 0.0572845)
(0.0573878 -0.0332809 0 0.0573878 0 0.0573878)
(0.0574908 -0.033325 0 0.0574908 0 0.0574908)
(0.0575935 -0.0333688 0 0.0575935 0 0.0575935)
(0.0576958 -0.0334125 0 0.0576958 0 0.0576958)
(0.0577979 -0.0334558 0 0.0577979 0 0.0577979)
(0.0578998 -0.0334987 0 0.0578998 0 0.0578998)
(0.0580013 -0.0335415 0 0.0580013 0 0.0580013)
(0.0581025 -0.0335839 0 0.0581025 0 0.0581025)
(0.0582034 -0.033626 0 0.0582034 0 0.0582034)
(0.0583041 -0.0336678 0 0.0583041 0 0.0583041)
(0.0584044 -0.0337093 0 0.0584044 0 0.0584044)
(0.0585044 -0.0337505 0 0.0585044 0 0.0585044)
(0.0586041 -0.0337914 0 0.0586041 0 0.0586041)
(0.0587034 -0.0338321 0 0.0587034 0 0.0587034)
(0.0588024 -0.0338724 0 0.0588024 0 0.0588024)
(0.0589011 -0.0339124 0 0.0589011 0 0.0589011)
(0.0589995 -0.0339521 0 0.0589995 0 0.0589995)
(0.0590975 -0.0339915 0 0.0590975 0 0.0590975)
(0.0591952 -0.0340306 0 0.0591952 0 0.0591952)
(0.0592925 -0.0340693 0 0.0592925 0 0.0592925)
(0.0593895 -0.0341078 0 0.0593895 0 0.0593895)
(0.0594861 -0.0341459 0 0.0594861 0 0.0594861)
(0.0595824 -0.0341838 0 0.0595824 0 0.0595824)
(0.0596783 -0.0342212 0 0.0596783 0 0.0596783)
(0.0597739 -0.0342584 0 0.0597739 0 0.0597739)
(0.0598691 -0.0342952 0 0.0598691 0 0.0598691)
(0.0599639 -0.0343317 0 0.0599639 0 0.0599639)
(0.0600583 -0.0343679 0 0.0600583 0 0.0600583)
(0.0601524 -0.0344038 0 0.0601524 0 0.0601524)
(0.0602462 -0.0344393 0 0.0602462 0 0.0602462)
(0.0603395 -0.0344745 0 0.0603395 0 0.0603395)
(0.0604324 -0.0345094 0 0.0604324 0 0.0604324)
(0.0605249 -0.0345439 0 0.0605249 0 0.0605249)
(0.060617 -0.0345781 0 0.060617 0 0.060617)
(0.0607087 -0.0346119 0 0.0607087 0 0.0607087)
(0.0608 -0.0346455 0 0.0608 0 0.0608)
(0.0608908 -0.0346787 0 0.0608908 0 0.0608908)
(0.0609813 -0.0347115 0 0.0609813 0 0.0609813)
(0.0610714 -0.034744 0 0.0610714 0 0.0610714)
(0.0611611 -0.0347761 0 0.0611611 0 0.0611611)
(0.0612503 -0.0348079 0 0.0612503 0 0.0612503)
(0.0613391 -0.0348394 0 0.0613391 0 0.0613391)
(0.0614275 -0.0348704 0 0.0614275 0 0.0614275)
(0.0615154 -0.0349011 0 0.0615154 0 0.0615154)
(0.0616029 -0.0349315 0 0.0616029 0 0.0616029)
(0.06169 -0.0349615 0 0.06169 0 0.06169)
(0.0617765 -0.0349912 0 0.0617765 0 0.0617765)
(0.0618627 -0.0350205 0 0.0618627 0 0.0618627)
(0.0619484 -0.0350494 0 0.0619484 0 0.0619484)
(0.0620336 -0.035078 0 0.0620336 0 0.0620336)
(0.0621183 -0.0351062 0 0.0621183 0 0.0621183)
(0.0622026 -0.0351341 0 0.0622026 0 0.0622026)
(0.0622864 -0.0351616 0 0.0622864 0 0.0622864)