/*--------------------------------*- C++ -*----------------------------------*\
| =========                 |                                                 |
| \\      /  F ield         | OpenFOAM: The Open Source CFD Toolbox           |
|  \\    /   O peration     | Version:  v1806                                 |
|   \\  /    A nd           | Web:      www.OpenFOAM.com                      |
|    \\/     M anipulation  |                                                 |
\*---------------------------------------------------------------------------*/
FoamFile
{
    version     2.0;
    format      ascii;
    class       volVectorField;
    location    "10000";
    object      U;
}
// * * * * * * * * * * * * * * * * * * * * * * * * * * * * * * * * * * * * * //

dimensions      [0 1 -1 0 0 0 0];


internalField   nonuniform List<vector> 
1025
(
(0.00143578 -1.98987e-16 0)
(0.00431097 -4.70764e-16 0)
(0.00719545 -4.47424e-16 0)
(0.0100864 -4.24674e-16 0)
(0.0129779 -4.19727e-16 0)
(0.0158579 -4.2079e-16 0)
(0.018703 -4.21612e-16 0)
(0.0214719 -4.21791e-16 0)
(0.0241055 -4.218e-16 0)
(0.0265402 -4.21757e-16 0)
(0.0287316 -4.21677e-16 0)
(0.0306653 -4.21582e-16 0)
(0.0323532 -4.21502e-16 0)
(0.0338215 -4.21439e-16 0)
(0.0351017 -4.21396e-16 0)
(0.0362245 -4.21373e-16 0)
(0.0372176 -4.21366e-16 0)
(0.0381041 -4.21369e-16 0)
(0.0389031 -4.21374e-16 0)
(0.0396296 -4.21384e-16 0)
(0.0402961 -4.21394e-16 0)
(0.0409121 -4.21406e-16 0)
(0.0414854 -4.21415e-16 0)
(0.0420225 -4.21426e-16 0)
(0.0425283 -4.21437e-16 0)
(0.0430071 -4.21449e-16 0)
(0.0434625 -4.21451e-16 0)
(0.0438972 -4.21464e-16 0)
(0.0443137 -4.21461e-16 0)
(0.0447142 -4.21469e-16 0)
(0.0451004 -4.21475e-16 0)
(0.0454738 -4.21469e-16 0)
(0.0458357 -4.21485e-16 0)
(0.0461875 -4.21482e-16 0)
(0.0465299 -4.21482e-16 0)
(0.0468639 -4.21483e-16 0)
(0.0471904 -4.2148e-16 0)
(0.0475099 -4.21486e-16 0)
(0.0478233 -4.21492e-16 0)
(0.0481309 -4.21485e-16 0)
(0.0484334 -4.21488e-16 0)
(0.0487312 -4.21491e-16 0)
(0.0490247 -4.21494e-16 0)
(0.0493143 -4.21495e-16 0)
(0.0496003 -4.21492e-16 0)
(0.0498831 -4.21498e-16 0)
(0.050163 -4.21495e-16 0)
(0.0504401 -4.21492e-16 0)
(0.0507149 -4.21495e-16 0)
(0.0509875 -4.21497e-16 0)
(0.0512581 -4.21499e-16 0)
(0.0515269 -4.21489e-16 0)
(0.0517941 -4.21501e-16 0)
(0.0520599 -4.21485e-16 0)
(0.0523244 -4.2149e-16 0)
(0.0525879 -4.21493e-16 0)
(0.0528504 -4.21488e-16 0)
(0.053112 -4.2148e-16 0)
(0.0533729 -4.21481e-16 0)
(0.0536333 -4.21484e-16 0)
(0.0538932 -4.21485e-16 0)
(0.0541527 -4.21487e-16 0)
(0.054412 -4.21488e-16 0)
(0.0546711 -4.21486e-16 0)
(0.0549301 -4.21492e-16 0)
(0.0551892 -4.21487e-16 0)
(0.0554483 -4.21494e-16 0)
(0.0557076 -4.21486e-16 0)
(0.0559672 -4.21495e-16 0)
(0.056227 -4.2148e-16 0)
(0.0564873 -4.21486e-16 0)
(0.056748 -4.21471e-16 0)
(0.0570092 -4.21476e-16 0)
(0.057271 -4.21482e-16 0)
(0.0575333 -4.21463e-16 0)
(0.0577964 -4.21473e-16 0)
(0.0580602 -4.21462e-16 0)
(0.0583248 -4.21472e-16 0)
(0.0585903 -4.21461e-16 0)
(0.0588566 -4.21472e-16 0)
(0.0591238 -4.21459e-16 0)
(0.059392 -4.21471e-16 0)
(0.0596613 -4.21451e-16 0)
(0.0599315 -4.21464e-16 0)
(0.0602029 -4.21457e-16 0)
(0.0604754 -4.21461e-16 0)
(0.0607491 -4.21462e-16 0)
(0.0610239 -4.21459e-16 0)
(0.0613 -4.21464e-16 0)
(0.0615774 -4.21462e-16 0)
(0.061856 -4.21459e-16 0)
(0.062136 -4.21461e-16 0)
(0.0624174 -4.2146e-16 0)
(0.0627002 -4.21461e-16 0)
(0.0629844 -4.21459e-16 0)
(0.06327 -4.21466e-16 0)
(0.0635571 -4.2145e-16 0)
(0.0638457 -4.2145e-16 0)
(0.0641359 -4.21452e-16 0)
(0.0644276 -4.2145e-16 0)
(0.0647209 -4.21453e-16 0)
(0.0650157 -4.2145e-16 0)
(0.0653123 -4.21457e-16 0)
(0.0656104 -4.21444e-16 0)
(0.0659103 -4.21458e-16 0)
(0.0662118 -4.21443e-16 0)
(0.066515 -4.21445e-16 0)
(0.06682 -4.21455e-16 0)
(0.0671268 -4.21446e-16 0)
(0.0674353 -4.21447e-16 0)
(0.0677456 -4.21454e-16 0)
(0.0680577 -4.21438e-16 0)
(0.0683716 -4.2145e-16 0)
(0.0686874 -4.21449e-16 0)
(0.0690051 -4.21454e-16 0)
(0.0693247 -4.21456e-16 0)
(0.0696461 -4.21458e-16 0)
(0.0699695 -4.21458e-16 0)
(0.0702948 -4.21458e-16 0)
(0.070622 -4.2145e-16 0)
(0.0709512 -4.21455e-16 0)
(0.0712824 -4.21453e-16 0)
(0.0716156 -4.21452e-16 0)
(0.0719508 -4.21453e-16 0)
(0.072288 -4.21459e-16 0)
(0.0726273 -4.2145e-16 0)
(0.0729686 -4.21431e-16 0)
(0.073312 -4.21424e-16 0)
(0.0736575 -4.21437e-16 0)
(0.074005 -4.21429e-16 0)
(0.0743547 -4.21424e-16 0)
(0.0747064 -4.21425e-16 0)
(0.0750603 -4.21423e-16 0)
(0.0754164 -4.21418e-16 0)
(0.0757746 -4.2142e-16 0)
(0.0761349 -4.21422e-16 0)
(0.0764975 -4.21421e-16 0)
(0.0768622 -4.21424e-16 0)
(0.0772291 -4.2142e-16 0)
(0.0775983 -4.21426e-16 0)
(0.0779696 -4.21423e-16 0)
(0.0783432 -4.21429e-16 0)
(0.078719 -4.21423e-16 0)
(0.0790971 -4.21417e-16 0)
(0.0794774 -4.21419e-16 0)
(0.07986 -4.21408e-16 0)
(0.0802449 -4.214e-16 0)
(0.0806321 -4.21392e-16 0)
(0.0810216 -4.21394e-16 0)
(0.0814134 -4.21382e-16 0)
(0.0818074 -4.21382e-16 0)
(0.0822039 -4.21379e-16 0)
(0.0826026 -4.21371e-16 0)
(0.0830038 -4.21362e-16 0)
(0.0834072 -4.21357e-16 0)
(0.083813 -4.21354e-16 0)
(0.0842212 -4.21359e-16 0)
(0.0846317 -4.21358e-16 0)
(0.0850447 -4.21374e-16 0)
(0.08546 -4.21371e-16 0)
(0.0858777 -4.21373e-16 0)
(0.0862979 -4.21374e-16 0)
(0.0867204 -4.2137e-16 0)
(0.0871454 -4.21367e-16 0)
(0.0875728 -4.21375e-16 0)
(0.0880026 -4.21373e-16 0)
(0.0884349 -4.2137e-16 0)
(0.0888696 -4.21374e-16 0)
(0.0893068 -4.21381e-16 0)
(0.0897463 -4.21349e-16 0)
(0.0901883 -4.21362e-16 0)
(0.0906331 -4.21414e-16 0)
(0.0910803 -4.21349e-16 0)
(0.0915297 -4.21359e-16 0)
(0.0919816 -4.21353e-16 0)
(0.0924362 -4.21408e-16 0)
(0.0928933 -4.21335e-16 0)
(0.0933528 -4.21393e-16 0)
(0.0938149 -4.21381e-16 0)
(0.0942795 -4.2137e-16 0)
(0.0947465 -4.21357e-16 0)
(0.095216 -4.21335e-16 0)
(0.0956881 -4.21375e-16 0)
(0.0961629 -4.21359e-16 0)
(0.0966401 -4.21339e-16 0)
(0.0971199 -4.2138e-16 0)
(0.0976024 -4.21366e-16 0)
(0.0980873 -4.21358e-16 0)
(0.0985745 -4.21338e-16 0)
(0.0990644 -4.21366e-16 0)
(0.0995572 -4.21399e-16 0)
(0.100052 -4.21305e-16 0)
(0.10055 -4.2138e-16 0)
(0.10105 -4.21269e-16 0)
(0.101553 -4.21356e-16 0)
(0.102059 -4.21266e-16 0)
(0.102567 -4.21356e-16 0)
(0.103078 -4.21257e-16 0)
(0.103591 -4.21344e-16 0)
(0.104107 -4.21322e-16 0)
(0.104625 -4.21308e-16 0)
(0.105146 -4.21332e-16 0)
(0.10567 -4.21344e-16 0)
(0.106197 -4.21355e-16 0)
(0.106726 -4.213e-16 0)
(0.107257 -4.21304e-16 0)
(0.107792 -4.21312e-16 0)
(0.108329 -4.21263e-16 0)
(0.108868 -4.21325e-16 0)
(0.10941 -4.21286e-16 0)
(0.109955 -4.21312e-16 0)
(0.110503 -4.21333e-16 0)
(0.111053 -4.21292e-16 0)
(0.111605 -4.2136e-16 0)
(0.112161 -4.21375e-16 0)
(0.112719 -4.2133e-16 0)
(0.11328 -4.21331e-16 0)
(0.113843 -4.21377e-16 0)
(0.114409 -4.21313e-16 0)
(0.114978 -4.2136e-16 0)
(0.115549 -4.21345e-16 0)
(0.116123 -4.21283e-16 0)
(0.1167 -4.21334e-16 0)
(0.117279 -4.21318e-16 0)
(0.117862 -4.21306e-16 0)
(0.118446 -4.21358e-16 0)
(0.119034 -4.21303e-16 0)
(0.119624 -4.21335e-16 0)
(0.120217 -4.21298e-16 0)
(0.120812 -4.21324e-16 0)
(0.121411 -4.21256e-16 0)
(0.122011 -4.21286e-16 0)
(0.122615 -4.21306e-16 0)
(0.123222 -4.21287e-16 0)
(0.123831 -4.21269e-16 0)
(0.124442 -4.21232e-16 0)
(0.125056 -4.21236e-16 0)
(0.125673 -4.2125e-16 0)
(0.126293 -4.21223e-16 0)
(0.126916 -4.21251e-16 0)
(0.127541 -4.21209e-16 0)
(0.128169 -4.21204e-16 0)
(0.128799 -4.21164e-16 0)
(0.129433 -4.21234e-16 0)
(0.130069 -4.21182e-16 0)
(0.130708 -4.21272e-16 0)
(0.131349 -4.21231e-16 0)
(0.131993 -4.21243e-16 0)
(0.13264 -4.21256e-16 0)
(0.13329 -4.21227e-16 0)
(0.133942 -4.21269e-16 0)
(0.134597 -4.21198e-16 0)
(0.135255 -4.21197e-16 0)
(0.135915 -4.2121e-16 0)
(0.136578 -4.2127e-16 0)
(0.137245 -4.21216e-16 0)
(0.137913 -4.21192e-16 0)
(0.138584 -4.21164e-16 0)
(0.139259 -4.21145e-16 0)
(0.139935 -4.2111e-16 0)
(0.140615 -4.21039e-16 0)
(0.141297 -4.21027e-16 0)
(0.141982 -4.21002e-16 0)
(0.14267 -4.20969e-16 0)
(0.14336 -4.20941e-16 0)
(0.144053 -4.2093e-16 0)
(0.144749 -4.20966e-16 0)
(0.145448 -4.20959e-16 0)
(0.146149 -4.20948e-16 0)
(0.146853 -4.20982e-16 0)
(0.14756 -4.20969e-16 0)
(0.14827 -4.20992e-16 0)
(0.148982 -4.20976e-16 0)
(0.149697 -4.20962e-16 0)
(0.150414 -4.20963e-16 0)
(0.151135 -4.20953e-16 0)
(0.151858 -4.20917e-16 0)
(0.152584 -4.2092e-16 0)
(0.153313 -4.20916e-16 0)
(0.154044 -4.20861e-16 0)
(0.154778 -4.20838e-16 0)
(0.155515 -4.20808e-16 0)
(0.156255 -4.20805e-16 0)
(0.156998 -4.20792e-16 0)
(0.157743 -4.20804e-16 0)
(0.15849 -4.208e-16 0)
(0.159241 -4.20768e-16 0)
(0.159994 -4.20726e-16 0)
(0.16075 -4.20712e-16 0)
(0.161509 -4.20698e-16 0)
(0.162271 -4.20673e-16 0)
(0.163035 -4.20654e-16 0)
(0.163802 -4.20661e-16 0)
(0.164572 -4.20711e-16 0)
(0.165344 -4.20674e-16 0)
(0.166119 -4.20707e-16 0)
(0.166897 -4.20688e-16 0)
(0.167678 -4.20666e-16 0)
(0.168462 -4.20676e-16 0)
(0.169248 -4.20645e-16 0)
(0.170037 -4.20625e-16 0)
(0.170828 -4.20638e-16 0)
(0.171623 -4.20607e-16 0)
(0.17242 -4.20622e-16 0)
(0.17322 -4.20605e-16 0)
(0.174023 -4.20635e-16 0)
(0.174828 -4.20624e-16 0)
(0.175636 -4.20625e-16 0)
(0.176447 -4.20637e-16 0)
(0.177261 -4.20621e-16 0)
(0.178077 -4.20622e-16 0)
(0.178896 -4.20608e-16 0)
(0.179718 -4.20594e-16 0)
(0.180542 -4.20558e-16 0)
(0.18137 -4.206e-16 0)
(0.1822 -4.20576e-16 0)
(0.183032 -4.20588e-16 0)
(0.183868 -4.2061e-16 0)
(0.184707 -4.20527e-16 0)
(0.185548 -4.20528e-16 0)
(0.186391 -4.20473e-16 0)
(0.187238 -4.2047e-16 0)
(0.188087 -4.20447e-16 0)
(0.188939 -4.20444e-16 0)
(0.189794 -4.20443e-16 0)
(0.190652 -4.20462e-16 0)
(0.191512 -4.20456e-16 0)
(0.192375 -4.20457e-16 0)
(0.19324 -4.20467e-16 0)
(0.194109 -4.20466e-16 0)
(0.19498 -4.20402e-16 0)
(0.195854 -4.20444e-16 0)
(0.196731 -4.20438e-16 0)
(0.197611 -4.20433e-16 0)
(0.198493 -4.20434e-16 0)
(0.199378 -4.20449e-16 0)
(0.200266 -4.20493e-16 0)
(0.201156 -4.20502e-16 0)
(0.202049 -4.20546e-16 0)
(0.202946 -4.20523e-16 0)
(0.203844 -4.20533e-16 0)
(0.204746 -4.20539e-16 0)
(0.20565 -4.20557e-16 0)
(0.206557 -4.20515e-16 0)
(0.207467 -4.20429e-16 0)
(0.208379 -4.20393e-16 0)
(0.209295 -4.20378e-16 0)
(0.210213 -4.20299e-16 0)
(0.211133 -4.20273e-16 0)
(0.212057 -4.2019e-16 0)
(0.212983 -4.20176e-16 0)
(0.213912 -4.20216e-16 0)
(0.214844 -4.20259e-16 0)
(0.215779 -4.20259e-16 0)
(0.216716 -4.2023e-16 0)
(0.217656 -4.20257e-16 0)
(0.218599 -4.20255e-16 0)
(0.219545 -4.20236e-16 0)
(0.220493 -4.20274e-16 0)
(0.221444 -4.20275e-16 0)
(0.222398 -4.20337e-16 0)
(0.223355 -4.20311e-16 0)
(0.224314 -4.20317e-16 0)
(0.225277 -4.20336e-16 0)
(0.226242 -4.20344e-16 0)
(0.227209 -4.20353e-16 0)
(0.22818 -4.20345e-16 0)
(0.229153 -4.20294e-16 0)
(0.230129 -4.20271e-16 0)
(0.231108 -4.20211e-16 0)
(0.23209 -4.20235e-16 0)
(0.233074 -4.20236e-16 0)
(0.234061 -4.20151e-16 0)
(0.235051 -4.20024e-16 0)
(0.236044 -4.20007e-16 0)
(0.237039 -4.2007e-16 0)
(0.238038 -4.20086e-16 0)
(0.239039 -4.20127e-16 0)
(0.240042 -4.20149e-16 0)
(0.241049 -4.20101e-16 0)
(0.242058 -4.20057e-16 0)
(0.24307 -4.2001e-16 0)
(0.244085 -4.19988e-16 0)
(0.245103 -4.1997e-16 0)
(0.246124 -4.19884e-16 0)
(0.247147 -4.1984e-16 0)
(0.248173 -4.19801e-16 0)
(0.249202 -4.19782e-16 0)
(0.250234 -4.198e-16 0)
(0.251268 -4.19832e-16 0)
(0.252306 -4.19889e-16 0)
(0.253346 -4.1993e-16 0)
(0.254389 -4.19886e-16 0)
(0.255434 -4.19886e-16 0)
(0.256483 -4.19794e-16 0)
(0.257534 -4.19629e-16 0)
(0.258588 -4.19528e-16 0)
(0.259645 -4.1954e-16 0)
(0.260705 -4.19508e-16 0)
(0.261767 -4.19553e-16 0)
(0.262833 -4.19598e-16 0)
(0.263901 -4.19694e-16 0)
(0.264972 -4.19756e-16 0)
(0.266045 -4.19756e-16 0)
(0.267122 -4.19758e-16 0)
(0.268201 -4.19738e-16 0)
(0.269284 -4.19696e-16 0)
(0.270369 -4.19645e-16 0)
(0.271456 -4.19618e-16 0)
(0.272547 -4.19585e-16 0)
(0.273641 -4.19551e-16 0)
(0.274737 -4.19498e-16 0)
(0.275836 -4.19388e-16 0)
(0.276938 -4.19342e-16 0)
(0.278043 -4.19356e-16 0)
(0.279151 -4.19347e-16 0)
(0.280261 -4.19341e-16 0)
(0.281375 -4.19336e-16 0)
(0.282491 -4.19342e-16 0)
(0.28361 -4.19273e-16 0)
(0.284732 -4.19312e-16 0)
(0.285856 -4.19347e-16 0)
(0.286984 -4.1933e-16 0)
(0.288115 -4.19252e-16 0)
(0.289248 -4.19215e-16 0)
(0.290384 -4.19304e-16 0)
(0.291523 -4.192e-16 0)
(0.292665 -4.19085e-16 0)
(0.29381 -4.19098e-16 0)
(0.294957 -4.19131e-16 0)
(0.296108 -4.19184e-16 0)
(0.297261 -4.19183e-16 0)
(0.298417 -4.1916e-16 0)
(0.299576 -4.19142e-16 0)
(0.300738 -4.19092e-16 0)
(0.301903 -4.19024e-16 0)
(0.303071 -4.18989e-16 0)
(0.304241 -4.18976e-16 0)
(0.305415 -4.19027e-16 0)
(0.306591 -4.19018e-16 0)
(0.307771 -4.18986e-16 0)
(0.308953 -4.19002e-16 0)
(0.310138 -4.19038e-16 0)
(0.311326 -4.19127e-16 0)
(0.312517 -4.19107e-16 0)
(0.313711 -4.19092e-16 0)
(0.314907 -4.19158e-16 0)
(0.316107 -4.19184e-16 0)
(0.317309 -4.1921e-16 0)
(0.318515 -4.1928e-16 0)
(0.319723 -4.1931e-16 0)
(0.320934 -4.19327e-16 0)
(0.322148 -4.19249e-16 0)
(0.323365 -4.19167e-16 0)
(0.324586 -4.19099e-16 0)
(0.325809 -4.19085e-16 0)
(0.327034 -4.19073e-16 0)
(0.328263 -4.1912e-16 0)
(0.329495 -4.19167e-16 0)
(0.33073 -4.19172e-16 0)
(0.331967 -4.19169e-16 0)
(0.333208 -4.19113e-16 0)
(0.334451 -4.18871e-16 0)
(0.335698 -4.18583e-16 0)
(0.336947 -4.18478e-16 0)
(0.3382 -4.18529e-16 0)
(0.339455 -4.18587e-16 0)
(0.340713 -4.18588e-16 0)
(0.341975 -4.18573e-16 0)
(0.343239 -4.18486e-16 0)
(0.344506 -4.18417e-16 0)
(0.345776 -4.18358e-16 0)
(0.34705 -4.18266e-16 0)
(0.348326 -4.18238e-16 0)
(0.349605 -4.18106e-16 0)
(0.350887 -4.17873e-16 0)
(0.352172 -4.17717e-16 0)
(0.35346 -4.17634e-16 0)
(0.354751 -4.17616e-16 0)
(0.356046 -4.17519e-16 0)
(0.357343 -4.17712e-16 0)
(0.358643 -4.17981e-16 0)
(0.359946 -4.18082e-16 0)
(0.361252 -4.18224e-16 0)
(0.362561 -4.18313e-16 0)
(0.363873 -4.1833e-16 0)
(0.365188 -4.18301e-16 0)
(0.366507 -4.18273e-16 0)
(0.367828 -4.18314e-16 0)
(0.369152 -4.18314e-16 0)
(0.37048 -4.18246e-16 0)
(0.37181 -4.18214e-16 0)
(0.373143 -4.17983e-16 0)
(0.37448 -4.17695e-16 0)
(0.375819 -4.17668e-16 0)
(0.377162 -4.17754e-16 0)
(0.378507 -4.1779e-16 0)
(0.379856 -4.17691e-16 0)
(0.381207 -4.1754e-16 0)
(0.382562 -4.17576e-16 0)
(0.38392 -4.17573e-16 0)
(0.385281 -4.17585e-16 0)
(0.386645 -4.17653e-16 0)
(0.388012 -4.17631e-16 0)
(0.389382 -4.17617e-16 0)
(0.390755 -4.17542e-16 0)
(0.392131 -4.175e-16 0)
(0.393511 -4.17599e-16 0)
(0.394893 -4.17549e-16 0)
(0.396279 -4.17553e-16 0)
(0.397667 -4.17877e-16 0)
(0.399059 -4.18239e-16 0)
(0.400454 -4.18489e-16 0)
(0.401852 -4.18634e-16 0)
(0.403254 -4.18529e-16 0)
(0.404658 -4.18411e-16 0)
(0.406066 -4.18442e-16 0)
(0.407477 -4.18376e-16 0)
(0.408891 -4.18378e-16 0)
(0.410308 -4.18296e-16 0)
(0.411728 -4.18148e-16 0)
(0.413151 -4.18104e-16 0)
(0.414578 -4.17961e-16 0)
(0.416007 -4.17824e-16 0)
(0.41744 -4.17719e-16 0)
(0.418876 -4.176e-16 0)
(0.420315 -4.17553e-16 0)
(0.421757 -4.17354e-16 0)
(0.423202 -4.17117e-16 0)
(0.424651 -4.17109e-16 0)
(0.426102 -4.1711e-16 0)
(0.427557 -4.17111e-16 0)
(0.429015 -4.17131e-16 0)
(0.430476 -4.17139e-16 0)
(0.43194 -4.17269e-16 0)
(0.433408 -4.17366e-16 0)
(0.434878 -4.17437e-16 0)
(0.436352 -4.1751e-16 0)
(0.437829 -4.17347e-16 0)
(0.439309 -4.16911e-16 0)
(0.440793 -4.16721e-16 0)
(0.442279 -4.16911e-16 0)
(0.443769 -4.17084e-16 0)
(0.445262 -4.1729e-16 0)
(0.446758 -4.17508e-16 0)
(0.448258 -4.17466e-16 0)
(0.44976 -4.17282e-16 0)
(0.451266 -4.17315e-16 0)
(0.452775 -4.17299e-16 0)
(0.454287 -4.17391e-16 0)
(0.455803 -4.17659e-16 0)
(0.457321 -4.17816e-16 0)
(0.458843 -4.17944e-16 0)
(0.460368 -4.17719e-16 0)
(0.461896 -4.17506e-16 0)
(0.463428 -4.17354e-16 0)
(0.464962 -4.17322e-16 0)
(0.4665 -4.1732e-16 0)
(0.468042 -4.17215e-16 0)
(0.469587 -4.1724e-16 0)
(0.471134 -4.17499e-16 0)
(0.472685 -4.17791e-16 0)
(0.47424 -4.1784e-16 0)
(0.475798 -4.17575e-16 0)
(0.477359 -4.17151e-16 0)
(0.478924 -4.1648e-16 0)
(0.48049 -4.16079e-16 0)
(0.48206 -4.16283e-16 0)
(0.483635 -4.16359e-16 0)
(0.485212 -4.16355e-16 0)
(0.486791 -4.16396e-16 0)
(0.488375 -4.16359e-16 0)
(0.489963 -4.16129e-16 0)
(0.491554 -4.15818e-16 0)
(0.493148 -4.15837e-16 0)
(0.494744 -4.15745e-16 0)
(0.496344 -4.15496e-16 0)
(0.497947 -4.15013e-16 0)
(0.499554 -4.14632e-16 0)
(0.501165 -4.14285e-16 0)
(0.502777 -4.14196e-16 0)
(0.504394 -4.14205e-16 0)
(0.506015 -4.14206e-16 0)
(0.507638 -4.14128e-16 0)
(0.509264 -4.14054e-16 0)
(0.510893 -4.13711e-16 0)
(0.512526 -4.13313e-16 0)
(0.514164 -4.13653e-16 0)
(0.515804 -4.14171e-16 0)
(0.517447 -4.14276e-16 0)
(0.519093 -4.1403e-16 0)
(0.520743 -4.13759e-16 0)
(0.522397 -4.13817e-16 0)
(0.524054 -4.14e-16 0)
(0.525713 -4.13996e-16 0)
(0.527377 -4.13756e-16 0)
(0.529043 -4.13433e-16 0)
(0.530713 -4.12906e-16 0)
(0.532385 -4.12066e-16 0)
(0.534061 -4.11253e-16 0)
(0.535741 -4.10846e-16 0)
(0.537424 -4.11092e-16 0)
(0.539111 -4.11327e-16 0)
(0.540801 -4.11578e-16 0)
(0.542494 -4.11421e-16 0)
(0.544191 -4.11358e-16 0)
(0.545892 -4.11491e-16 0)
(0.547595 -4.11813e-16 0)
(0.549302 -4.11933e-16 0)
(0.551011 -4.12146e-16 0)
(0.552725 -4.12175e-16 0)
(0.554442 -4.12819e-16 0)
(0.556161 -4.13447e-16 0)
(0.557885 -4.1314e-16 0)
(0.559611 -4.12745e-16 0)
(0.561341 -4.12413e-16 0)
(0.563075 -4.11759e-16 0)
(0.564812 -4.11314e-16 0)
(0.566552 -4.11089e-16 0)
(0.568296 -4.10417e-16 0)
(0.570044 -4.10263e-16 0)
(0.571794 -4.1044e-16 0)
(0.573546 -4.10409e-16 0)
(0.575304 -4.10336e-16 0)
(0.577065 -4.09951e-16 0)
(0.578829 -4.09559e-16 0)
(0.580596 -4.09221e-16 0)
(0.582367 -4.08615e-16 0)
(0.58414 -4.08453e-16 0)
(0.585917 -4.08621e-16 0)
(0.587698 -4.08758e-16 0)
(0.589483 -4.09077e-16 0)
(0.59127 -4.09624e-16 0)
(0.59306 -4.10195e-16 0)
(0.594855 -4.10555e-16 0)
(0.596653 -4.10676e-16 0)
(0.598454 -4.10994e-16 0)
(0.600259 -4.11105e-16 0)
(0.602066 -4.10785e-16 0)
(0.603878 -4.10452e-16 0)
(0.605693 -4.10329e-16 0)
(0.60751 -4.10374e-16 0)
(0.609331 -4.10325e-16 0)
(0.611155 -4.10293e-16 0)
(0.612983 -4.1011e-16 0)
(0.614814 -4.09409e-16 0)
(0.616649 -4.08503e-16 0)
(0.618488 -4.08273e-16 0)
(0.62033 -4.07948e-16 0)
(0.622174 -4.07064e-16 0)
(0.624022 -4.06547e-16 0)
(0.625873 -4.06073e-16 0)
(0.627729 -4.05726e-16 0)
(0.629587 -4.05824e-16 0)
(0.631449 -4.06266e-16 0)
(0.633314 -4.06465e-16 0)
(0.635182 -4.0626e-16 0)
(0.637054 -4.05451e-16 0)
(0.63893 -4.0475e-16 0)
(0.640808 -4.04607e-16 0)
(0.642689 -4.04125e-16 0)
(0.644574 -4.03606e-16 0)
(0.646463 -4.03319e-16 0)
(0.648355 -4.03011e-16 0)
(0.65025 -4.02601e-16 0)
(0.652149 -4.01671e-16 0)
(0.65405 -4.00951e-16 0)
(0.655956 -4.00315e-16 0)
(0.657865 -3.99697e-16 0)
(0.659776 -3.99672e-16 0)
(0.661692 -3.99512e-16 0)
(0.663611 -3.98941e-16 0)
(0.665532 -3.98336e-16 0)
(0.667457 -3.98095e-16 0)
(0.669387 -3.97417e-16 0)
(0.671318 -3.96091e-16 0)
(0.673254 -3.95209e-16 0)
(0.675193 -3.94927e-16 0)
(0.677135 -3.9479e-16 0)
(0.679079 -3.94679e-16 0)
(0.681027 -3.93646e-16 0)
(0.68298 -3.92699e-16 0)
(0.684935 -3.92587e-16 0)
(0.686894 -3.92487e-16 0)
(0.688855 -3.92587e-16 0)
(0.69082 -3.92521e-16 0)
(0.692788 -3.92735e-16 0)
(0.69476 -3.92692e-16 0)
(0.696734 -3.92151e-16 0)
(0.698713 -3.91744e-16 0)
(0.700694 -3.91776e-16 0)
(0.702679 -3.92027e-16 0)
(0.704667 -3.91987e-16 0)
(0.706657 -3.91983e-16 0)
(0.708652 -3.91548e-16 0)
(0.71065 -3.91154e-16 0)
(0.712651 -3.91117e-16 0)
(0.714655 -3.90906e-16 0)
(0.716663 -3.90594e-16 0)
(0.718674 -3.90613e-16 0)
(0.720688 -3.89678e-16 0)
(0.722704 -3.88546e-16 0)
(0.724725 -3.88237e-16 0)
(0.726749 -3.874e-16 0)
(0.728775 -3.87026e-16 0)
(0.730805 -3.86327e-16 0)
(0.732838 -3.85267e-16 0)
(0.734874 -3.85086e-16 0)
(0.736914 -3.84425e-16 0)
(0.738956 -3.8332e-16 0)
(0.741002 -3.8301e-16 0)
(0.743051 -3.82103e-16 0)
(0.745102 -3.80233e-16 0)
(0.747157 -3.79054e-16 0)
(0.749215 -3.78256e-16 0)
(0.751277 -3.77516e-16 0)
(0.753342 -3.75997e-16 0)
(0.755409 -3.74674e-16 0)
(0.757479 -3.7414e-16 0)
(0.759553 -3.7354e-16 0)
(0.76163 -3.73703e-16 0)
(0.76371 -3.74281e-16 0)
(0.765793 -3.73587e-16 0)
(0.767879 -3.71767e-16 0)
(0.769968 -3.70412e-16 0)
(0.772061 -3.70038e-16 0)
(0.774156 -3.70446e-16 0)
(0.776254 -3.7123e-16 0)
(0.778355 -3.71356e-16 0)
(0.78046 -3.70948e-16 0)
(0.782567 -3.7084e-16 0)
(0.784677 -3.70923e-16 0)
(0.78679 -3.70938e-16 0)
(0.788906 -3.70797e-16 0)
(0.791026 -3.7062e-16 0)
(0.793148 -3.70025e-16 0)
(0.795273 -3.69886e-16 0)
(0.797401 -3.70054e-16 0)
(0.799531 -3.69888e-16 0)
(0.801665 -3.70284e-16 0)
(0.803801 -3.71321e-16 0)
(0.805941 -3.72242e-16 0)
(0.808083 -3.72401e-16 0)
(0.810229 -3.72273e-16 0)
(0.812377 -3.71785e-16 0)
(0.814528 -3.70835e-16 0)
(0.816681 -3.7002e-16 0)
(0.818837 -3.69885e-16 0)
(0.820997 -3.70281e-16 0)
(0.823159 -3.70133e-16 0)
(0.825323 -3.68935e-16 0)
(0.827491 -3.67684e-16 0)
(0.829661 -3.66684e-16 0)
(0.831834 -3.66503e-16 0)
(0.83401 -3.65819e-16 0)
(0.836189 -3.64624e-16 0)
(0.838369 -3.64145e-16 0)
(0.840553 -3.62711e-16 0)
(0.842739 -3.63058e-16 0)
(0.844929 -3.64469e-16 0)
(0.84712 -3.64098e-16 0)
(0.849314 -3.63444e-16 0)
(0.85151 -3.62903e-16 0)
(0.85371 -3.62794e-16 0)
(0.855912 -3.62812e-16 0)
(0.858116 -3.6254e-16 0)
(0.860323 -3.62062e-16 0)
(0.862533 -3.61719e-16 0)
(0.864745 -3.61157e-16 0)
(0.866959 -3.60216e-16 0)
(0.869176 -3.6019e-16 0)
(0.871395 -3.61216e-16 0)
(0.873616 -3.6226e-16 0)
(0.87584 -3.62812e-16 0)
(0.878066 -3.61799e-16 0)
(0.880295 -3.59541e-16 0)
(0.882526 -3.58636e-16 0)
(0.88476 -3.58502e-16 0)
(0.886995 -3.58841e-16 0)
(0.889233 -3.60387e-16 0)
(0.891472 -3.60925e-16 0)
(0.893715 -3.60226e-16 0)
(0.895959 -3.59744e-16 0)
(0.898206 -3.58921e-16 0)
(0.900455 -3.58536e-16 0)
(0.902706 -3.5811e-16 0)
(0.904959 -3.57411e-16 0)
(0.907214 -3.57607e-16 0)
(0.909471 -3.58015e-16 0)
(0.91173 -3.59407e-16 0)
(0.913992 -3.60688e-16 0)
(0.916254 -3.61384e-16 0)
(0.918519 -3.62078e-16 0)
(0.920787 -3.6049e-16 0)
(0.923056 -3.58626e-16 0)
(0.925327 -3.58125e-16 0)
(0.927599 -3.57069e-16 0)
(0.929874 -3.5522e-16 0)
(0.93215 -3.5407e-16 0)
(0.934428 -3.54662e-16 0)
(0.936707 -3.55311e-16 0)
(0.938989 -3.54125e-16 0)
(0.941272 -3.51766e-16 0)
(0.943557 -3.4858e-16 0)
(0.945843 -3.46743e-16 0)
(0.948131 -3.46292e-16 0)
(0.95042 -3.44902e-16 0)
(0.952711 -3.42153e-16 0)
(0.955003 -3.40226e-16 0)
(0.957297 -3.40458e-16 0)
(0.959593 -3.41068e-16 0)
(0.961889 -3.39725e-16 0)
(0.964187 -3.38062e-16 0)
(0.966487 -3.38199e-16 0)
(0.968787 -3.375e-16 0)
(0.971089 -3.3587e-16 0)
(0.973392 -3.35144e-16 0)
(0.975697 -3.34678e-16 0)
(0.978002 -3.3457e-16 0)
(0.980309 -3.35041e-16 0)
(0.982616 -3.35046e-16 0)
(0.984924 -3.35591e-16 0)
(0.987234 -3.36148e-16 0)
(0.989545 -3.36612e-16 0)
(0.991856 -3.37013e-16 0)
(0.994167 -3.36527e-16 0)
(0.99648 -3.3623e-16 0)
(0.998794 -3.35439e-16 0)
(1.00111 -3.32322e-16 0)
(1.00342 -3.29511e-16 0)
(1.00574 -3.2666e-16 0)
(1.00806 -3.22817e-16 0)
(1.01037 -3.1994e-16 0)
(1.01269 -3.18284e-16 0)
(1.01501 -3.18271e-16 0)
(1.01733 -3.19065e-16 0)
(1.01964 -3.19518e-16 0)
(1.02196 -3.19868e-16 0)
(1.02428 -3.18542e-16 0)
(1.0266 -3.17483e-16 0)
(1.02892 -3.18523e-16 0)
(1.03124 -3.1844e-16 0)
(1.03356 -3.15569e-16 0)
(1.03588 -3.11044e-16 0)
(1.0382 -3.07861e-16 0)
(1.04052 -3.04508e-16 0)
(1.04284 -3.0021e-16 0)
(1.04516 -2.98307e-16 0)
(1.04747 -3.009e-16 0)
(1.04979 -3.0373e-16 0)
(1.05211 -3.04289e-16 0)
(1.05443 -3.04487e-16 0)
(1.05674 -3.04632e-16 0)
(1.05906 -3.05197e-16 0)
(1.06138 -3.06383e-16 0)
(1.06369 -3.06218e-16 0)
(1.066 -3.05325e-16 0)
(1.06832 -3.05449e-16 0)
(1.07063 -3.06143e-16 0)
(1.07294 -3.07451e-16 0)
(1.07525 -3.06097e-16 0)
(1.07756 -3.0124e-16 0)
(1.07987 -2.93832e-16 0)
(1.08217 -2.8619e-16 0)
(1.08448 -2.82405e-16 0)
(1.08678 -2.82769e-16 0)
(1.08908 -2.83427e-16 0)
(1.09138 -2.8115e-16 0)
(1.09368 -2.78358e-16 0)
(1.09598 -2.77209e-16 0)
(1.09827 -2.78481e-16 0)
(1.10057 -2.77791e-16 0)
(1.10286 -2.73146e-16 0)
(1.10515 -2.69021e-16 0)
(1.10743 -2.65277e-16 0)
(1.10972 -2.61228e-16 0)
(1.112 -2.5728e-16 0)
(1.11428 -2.54365e-16 0)
(1.11656 -2.51509e-16 0)
(1.11883 -2.4817e-16 0)
(1.1211 -2.46686e-16 0)
(1.12337 -2.44943e-16 0)
(1.12564 -2.45103e-16 0)
(1.1279 -2.48609e-16 0)
(1.13016 -2.51159e-16 0)
(1.13242 -2.4912e-16 0)
(1.13467 -2.46076e-16 0)
(1.13692 -2.46395e-16 0)
(1.13917 -2.46549e-16 0)
(1.14141 -2.44276e-16 0)
(1.14365 -2.40688e-16 0)
(1.14589 -2.3666e-16 0)
(1.14812 -2.34508e-16 0)
(1.15034 -2.31754e-16 0)
(1.15257 -2.29328e-16 0)
(1.15479 -2.26016e-16 0)
(1.157 -2.23339e-16 0)
(1.15921 -2.22593e-16 0)
(1.16142 -2.15751e-16 0)
(1.16362 -2.07871e-16 0)
(1.16581 -2.00879e-16 0)
(1.168 -2.02725e-16 0)
(1.17019 -2.10124e-16 0)
(1.17237 -2.08416e-16 0)
(1.17454 -2.02582e-16 0)
(1.17671 -1.99165e-16 0)
(1.17888 -2.00003e-16 0)
(1.18103 -2.04518e-16 0)
(1.18319 -2.08837e-16 0)
(1.18533 -2.09668e-16 0)
(1.18747 -2.10393e-16 0)
(1.18961 -2.10884e-16 0)
(1.19173 -2.11275e-16 0)
(1.19385 -2.11642e-16 0)
(1.19597 -2.12475e-16 0)
(1.19807 -2.12649e-16 0)
(1.20017 -2.13375e-16 0)
(1.20226 -2.16148e-16 0)
(1.20435 -2.19524e-16 0)
(1.20643 -2.26203e-16 0)
(1.20849 -2.32196e-16 0)
(1.21056 -2.36095e-16 0)
(1.21261 -2.38108e-16 0)
(1.21466 -2.38896e-16 0)
(1.21669 -2.40136e-16 0)
(1.21872 -2.40783e-16 0)
(1.22074 -2.40303e-16 0)
(1.22275 -2.39077e-16 0)
(1.22475 -2.37656e-16 0)
(1.22675 -2.32523e-16 0)
(1.22873 -2.26574e-16 0)
(1.2307 -2.20996e-16 0)
(1.23267 -2.12134e-16 0)
(1.23462 -2.04814e-16 0)
(1.23656 -2.00923e-16 0)
(1.2385 -1.9868e-16 0)
(1.24042 -1.93695e-16 0)
(1.24233 -1.88823e-16 0)
(1.24423 -1.88182e-16 0)
(1.24612 -1.90754e-16 0)
(1.248 -1.92077e-16 0)
(1.24987 -1.90449e-16 0)
(1.25172 -1.86821e-16 0)
(1.25357 -1.82362e-16 0)
(1.2554 -1.80166e-16 0)
(1.25722 -1.73236e-16 0)
(1.25903 -1.69257e-16 0)
(1.26082 -1.76065e-16 0)
(1.2626 -1.79442e-16 0)
(1.26437 -1.77562e-16 0)
(1.26612 -1.78661e-16 0)
(1.26787 -1.76888e-16 0)
(1.26959 -1.74296e-16 0)
(1.27131 -1.72308e-16 0)
(1.27301 -1.69297e-16 0)
(1.27469 -1.71009e-16 0)
(1.27636 -1.73147e-16 0)
(1.27802 -1.72683e-16 0)
(1.27966 -1.71527e-16 0)
(1.28128 -1.71672e-16 0)
(1.28289 -1.7111e-16 0)
(1.28448 -1.68054e-16 0)
(1.28606 -1.63592e-16 0)
(1.28762 -1.61875e-16 0)
(1.28917 -1.58905e-16 0)
(1.29069 -1.52934e-16 0)
(1.2922 -1.52584e-16 0)
(1.2937 -1.53966e-16 0)
(1.29517 -1.53079e-16 0)
(1.29663 -1.51842e-16 0)
(1.29807 -1.48151e-16 0)
(1.29949 -1.42243e-16 0)
(1.3009 -1.39944e-16 0)
(1.30228 -1.39505e-16 0)
(1.30365 -1.32877e-16 0)
(1.305 -1.28023e-16 0)
(1.30633 -1.23354e-16 0)
(1.30763 -1.19481e-16 0)
(1.30892 -1.13235e-16 0)
(1.31019 -1.07543e-16 0)
(1.31144 -1.11207e-16 0)
(1.31266 -1.13201e-16 0)
(1.31387 -1.1194e-16 0)
(1.31505 -1.00054e-16 0)
(1.31622 -8.89762e-17 0)
(1.31736 -8.80495e-17 0)
(1.31848 -8.92202e-17 0)
(1.31957 -8.90424e-17 0)
(1.32065 -9.02082e-17 0)
(1.3217 -9.32314e-17 0)
(1.32273 -9.07851e-17 0)
(1.32373 -8.98623e-17 0)
(1.32472 -9.26382e-17 0)
(1.32567 -8.975e-17 0)
(1.32661 -8.42079e-17 0)
(1.32752 -8.33886e-17 0)
(1.3284 -8.48213e-17 0)
(1.32926 -7.82351e-17 0)
(1.33009 -7.33957e-17 0)
(1.3309 -8.10384e-17 0)
(1.33168 -9.25769e-17 0)
(1.33244 -9.79003e-17 0)
(1.33317 -1.02363e-16 0)
(1.33387 -9.78767e-17 0)
(1.33455 -8.02853e-17 0)
(1.33519 -6.80091e-17 0)
(1.33581 -6.66726e-17 0)
(1.3364 -7.2874e-17 0)
(1.33697 -7.57016e-17 0)
(1.3375 -7.59969e-17 0)
(1.33801 -7.13159e-17 0)
(1.33848 -6.42792e-17 0)
(1.33893 -6.05042e-17 0)
(1.33934 -5.60264e-17 0)
(1.33973 -5.40681e-17 0)
(1.34008 -5.02805e-17 0)
(1.3404 -4.03021e-17 0)
(1.34069 -2.48764e-17 0)
(1.34095 -1.42744e-17 0)
(1.34118 -1.26097e-17 0)
(1.34137 -1.06092e-17 0)
(1.34153 -1.16644e-17 0)
(1.34166 -1.44696e-17 0)
(1.34175 -2.01448e-17 0)
(1.3418 -2.66538e-18 0)
)
;

boundaryField
{
    INLET
    {
        type            cyclic;
    }
    OUTLET
    {
        type            cyclic;
    }
    CENTER
    {
        type            symmetryPlane;
    }
    WALL
    {
        type            noSlip;
    }
    frontAndBackPlanes
    {
        type            empty;
    }
}


// ************************************************************************* //
