/*--------------------------------*- C++ -*----------------------------------*\
| =========                 |                                                 |
| \\      /  F ield         | OpenFOAM: The Open Source CFD Toolbox           |
|  \\    /   O peration     | Version:  v1806                                 |
|   \\  /    A nd           | Web:      www.OpenFOAM.com                      |
|    \\/     M anipulation  |                                                 |
\*---------------------------------------------------------------------------*/
FoamFile
{
    version     2.0;
    format      ascii;
    class       volScalarField;
    location    "10000";
    object      k_DNS;
}
// * * * * * * * * * * * * * * * * * * * * * * * * * * * * * * * * * * * * * //

dimensions      [0 2 -2 0 0 0 0];


internalField   nonuniform List<scalar> 
1025
(
6.51803e-06
4.88674e-05
0.000126048
0.000235806
0.000393472
0.000562446
0.000794597
0.00103266
0.00131857
0.00163215
0.0019472
0.00232938
0.00271665
0.00311681
0.00356307
0.00401142
0.00447653
0.00496697
0.00545971
0.00596412
0.00647962
0.00699754
0.00751685
0.00803789
0.0085614
0.00907526
0.00958396
0.0100951
0.0105884
0.01107
0.0115538
0.0120169
0.0124604
0.0129061
0.0133336
0.0137322
0.0141327
0.0145222
0.0148726
0.0152246
0.0155761
0.0158778
0.0161809
0.0164854
0.0167502
0.0170061
0.0172633
0.0174964
0.0177085
0.0179216
0.0181257
0.018298
0.0184711
0.018645
0.0187856
0.0189232
0.0190614
0.0191824
0.0192889
0.0193959
0.019499
0.0195788
0.019659
0.0197395
0.0198025
0.0198598
0.0199174
0.0199689
0.0200069
0.0200452
0.0200836
0.0201078
0.02013
0.0201522
0.0201691
0.020178
0.0201869
0.0201958
0.0201947
0.0201927
0.0201907
0.0201849
0.0201741
0.0201633
0.0201524
0.0201352
0.0201173
0.0200994
0.0200793
0.0200559
0.0200324
0.0200088
0.0199818
0.0199541
0.0199262
0.0198973
0.0198665
0.0198355
0.0198043
0.0197716
0.0197384
0.019705
0.0196712
0.0196365
0.0196015
0.0195665
0.019531
0.0194952
0.0194592
0.0194231
0.019387
0.0193506
0.0193141
0.0192778
0.0192415
0.019205
0.0191684
0.0191324
0.0190963
0.01906
0.0190241
0.0189886
0.018953
0.0189171
0.0188823
0.0188475
0.0188125
0.0187778
0.018744
0.01871
0.0186758
0.0186427
0.0186097
0.0185767
0.0185438
0.018512
0.0184801
0.0184481
0.018417
0.0183863
0.0183554
0.0183247
0.0182952
0.0182656
0.0182359
0.018207
0.0181787
0.0181502
0.0181217
0.0180946
0.0180673
0.01804
0.0180134
0.0179874
0.0179612
0.017935
0.0179102
0.0178853
0.0178602
0.0178358
0.0178121
0.0177882
0.0177642
0.0177416
0.0177188
0.017696
0.0176737
0.017652
0.0176303
0.0176084
0.0175878
0.017567
0.0175462
0.017526
0.0175062
0.0174863
0.0174665
0.0174477
0.0174288
0.0174098
0.0173914
0.0173734
0.0173553
0.0173373
0.0173201
0.0173028
0.0172855
0.0172689
0.0172524
0.0172358
0.0172196
0.0172038
0.017188
0.0171721
0.017157
0.0171419
0.0171267
0.017112
0.0170975
0.017083
0.0170686
0.0170548
0.0170408
0.0170269
0.0170135
0.0170002
0.0169868
0.0169737
0.0169609
0.016948
0.0169353
0.016923
0.0169106
0.0168982
0.0168863
0.0168744
0.0168625
0.0168509
0.0168394
0.0168279
0.0168165
0.0168055
0.0167944
0.0167833
0.0167727
0.0167619
0.0167512
0.0167408
0.0167304
0.01672
0.0167098
0.0166998
0.0166897
0.0166798
0.0166701
0.0166603
0.0166506
0.0166411
0.0166316
0.0166221
0.0166129
0.0166037
0.0165945
0.0165855
0.0165765
0.0165675
0.0165586
0.0165499
0.0165411
0.0165325
0.0165239
0.0165154
0.0165068
0.0164985
0.0164901
0.0164818
0.0164736
0.0164654
0.0164572
0.0164492
0.0164412
0.0164331
0.0164252
0.0164173
0.0164094
0.0164017
0.0163939
0.0163862
0.0163785
0.0163709
0.0163632
0.0163557
0.0163482
0.0163406
0.0163332
0.0163258
0.0163184
0.016311
0.0163037
0.0162963
0.0162891
0.0162818
0.0162746
0.0162674
0.0162602
0.016253
0.0162459
0.0162388
0.0162317
0.0162246
0.0162176
0.0162105
0.0162035
0.0161966
0.0161895
0.0161826
0.0161756
0.0161686
0.0161618
0.0161548
0.0161479
0.016141
0.0161341
0.0161272
0.0161204
0.0161135
0.0161067
0.0160998
0.016093
0.0160861
0.0160793
0.0160725
0.0160657
0.0160588
0.016052
0.0160452
0.0160384
0.0160315
0.0160247
0.0160179
0.0160111
0.0160043
0.0159974
0.0159906
0.0159837
0.0159769
0.01597
0.0159631
0.0159563
0.0159494
0.0159425
0.0159356
0.0159287
0.0159218
0.0159148
0.0159079
0.0159009
0.015894
0.015887
0.01588
0.015873
0.015866
0.015859
0.015852
0.0158449
0.0158378
0.0158307
0.0158236
0.0158165
0.0158094
0.0158022
0.0157951
0.0157879
0.0157807
0.0157735
0.0157662
0.015759
0.0157517
0.0157444
0.015737
0.0157297
0.0157223
0.015715
0.0157075
0.0157001
0.0156927
0.0156852
0.0156777
0.0156702
0.0156626
0.0156551
0.0156475
0.0156398
0.0156322
0.0156245
0.0156168
0.0156091
0.0156014
0.0155936
0.0155858
0.015578
0.0155701
0.0155623
0.0155544
0.0155465
0.0155385
0.0155305
0.0155225
0.0155145
0.0155064
0.0154983
0.0154902
0.015482
0.0154739
0.0154656
0.0154574
0.0154491
0.0154408
0.0154325
0.0154241
0.0154157
0.0154073
0.0153988
0.0153903
0.0153818
0.0153733
0.0153647
0.015356
0.0153474
0.0153387
0.01533
0.0153212
0.0153124
0.0153035
0.0152947
0.0152858
0.0152768
0.0152678
0.0152588
0.0152498
0.0152407
0.0152315
0.0152224
0.0152132
0.015204
0.0151947
0.0151854
0.0151761
0.0151667
0.0151573
0.0151479
0.0151384
0.0151289
0.0151194
0.0151098
0.0151002
0.0150906
0.0150809
0.0150712
0.0150614
0.0150517
0.0150418
0.015032
0.0150221
0.0150122
0.0150022
0.0149922
0.0149822
0.0149721
0.014962
0.0149519
0.0149417
0.0149315
0.0149212
0.0149109
0.0149006
0.0148903
0.0148799
0.0148695
0.014859
0.0148485
0.014838
0.0148274
0.0148168
0.0148062
0.0147955
0.0147848
0.014774
0.0147632
0.0147524
0.0147415
0.0147306
0.0147197
0.0147087
0.0146977
0.0146866
0.0146756
0.0146644
0.0146533
0.0146421
0.0146308
0.0146195
0.0146082
0.0145969
0.0145855
0.014574
0.0145626
0.0145511
0.0145395
0.014528
0.0145164
0.0145047
0.014493
0.0144813
0.0144695
0.0144577
0.0144459
0.014434
0.014422
0.0144101
0.0143981
0.014386
0.014374
0.0143618
0.0143497
0.0143375
0.0143253
0.014313
0.0143007
0.0142883
0.014276
0.0142636
0.0142511
0.0142386
0.0142261
0.0142136
0.014201
0.0141884
0.0141757
0.0141631
0.0141503
0.0141376
0.0141248
0.014112
0.0140992
0.0140863
0.0140734
0.0140604
0.0140474
0.0140344
0.0140214
0.0140083
0.0139952
0.013982
0.0139688
0.0139556
0.0139423
0.013929
0.0139157
0.0139023
0.0138889
0.0138755
0.013862
0.0138485
0.0138349
0.0138213
0.0138076
0.013794
0.0137802
0.0137665
0.0137527
0.0137388
0.0137249
0.013711
0.013697
0.013683
0.013669
0.0136549
0.0136408
0.0136266
0.0136124
0.0135981
0.0135838
0.0135695
0.0135551
0.0135407
0.0135262
0.0135118
0.0134972
0.0134827
0.0134681
0.0134534
0.0134387
0.013424
0.0134092
0.0133945
0.0133796
0.0133648
0.0133498
0.0133349
0.0133199
0.0133049
0.0132898
0.0132747
0.0132595
0.0132444
0.0132291
0.0132139
0.0131986
0.0131832
0.0131679
0.0131524
0.013137
0.0131215
0.0131059
0.0130904
0.0130748
0.0130591
0.0130435
0.0130278
0.013012
0.0129962
0.0129804
0.0129646
0.0129487
0.0129327
0.0129167
0.0129007
0.0128847
0.0128686
0.0128524
0.0128362
0.01282
0.0128037
0.0127874
0.0127711
0.0127547
0.0127382
0.0127217
0.0127052
0.0126886
0.012672
0.0126554
0.0126387
0.0126219
0.0126052
0.0125883
0.0125715
0.0125546
0.0125377
0.0125207
0.0125037
0.0124867
0.0124696
0.0124525
0.0124354
0.0124182
0.012401
0.0123837
0.0123665
0.0123491
0.0123318
0.0123144
0.012297
0.0122795
0.012262
0.0122444
0.0122268
0.0122092
0.0121916
0.0121738
0.0121561
0.0121383
0.0121205
0.0121026
0.0120846
0.0120667
0.0120487
0.0120306
0.0120126
0.0119945
0.0119763
0.0119582
0.01194
0.0119217
0.0119034
0.0118851
0.0118667
0.0118483
0.0118299
0.0118113
0.0117928
0.0117742
0.0117555
0.0117368
0.0117181
0.0116993
0.0116805
0.0116616
0.0116427
0.0116237
0.0116047
0.0115856
0.0115666
0.0115474
0.0115282
0.011509
0.0114898
0.0114705
0.0114512
0.0114318
0.0114124
0.011393
0.0113736
0.0113541
0.0113346
0.011315
0.0112954
0.0112757
0.011256
0.0112362
0.0112164
0.0111965
0.0111766
0.0111566
0.0111365
0.0111164
0.0110962
0.011076
0.0110557
0.0110354
0.011015
0.0109946
0.0109741
0.0109536
0.0109331
0.0109125
0.0108919
0.0108712
0.0108505
0.0108298
0.010809
0.0107882
0.0107674
0.0107465
0.0107255
0.0107045
0.0106835
0.0106624
0.0106413
0.0106202
0.010599
0.0105778
0.0105565
0.0105352
0.0105138
0.0104924
0.0104709
0.0104494
0.0104278
0.0104062
0.0103845
0.0103628
0.010341
0.0103192
0.0102973
0.0102754
0.0102534
0.0102314
0.0102093
0.0101872
0.010165
0.0101427
0.0101204
0.0100981
0.0100758
0.0100534
0.010031
0.0100085
0.00998597
0.00996339
0.00994076
0.00991806
0.00989528
0.00987241
0.00984947
0.00982644
0.00980334
0.00978016
0.00975691
0.00973358
0.0097102
0.00968674
0.00966321
0.00963961
0.00961594
0.0095922
0.00956839
0.00954452
0.0095206
0.00949661
0.00947254
0.00944839
0.00942418
0.00939989
0.00937554
0.00935113
0.00932665
0.00930212
0.00927754
0.0092529
0.00922821
0.00920346
0.00917865
0.00915377
0.00912885
0.00910388
0.00907885
0.00905375
0.00902859
0.00900337
0.00897809
0.00895276
0.00892737
0.00890195
0.00887648
0.00885096
0.0088254
0.00879979
0.00877414
0.00874843
0.00872265
0.0086968
0.00867089
0.00864494
0.00861895
0.0085929
0.00856682
0.0085407
0.00851454
0.00848834
0.0084621
0.00843581
0.00840946
0.00838307
0.00835662
0.00833011
0.00830355
0.00827693
0.00825026
0.00822354
0.00819675
0.00816991
0.00814302
0.00811605
0.00808904
0.00806197
0.00803486
0.0080077
0.00798045
0.00795315
0.00792579
0.00789837
0.00787089
0.00784334
0.00781572
0.007788
0.00776018
0.00773228
0.00770428
0.00767618
0.00764798
0.00761967
0.00759129
0.00756282
0.00753429
0.0075057
0.00747708
0.00744841
0.00741969
0.00739091
0.00736208
0.0073332
0.00730428
0.00727533
0.00724634
0.00721732
0.0071883
0.00715925
0.00713017
0.00710104
0.00707187
0.00704263
0.00701335
0.00698399
0.00695459
0.00692513
0.00689561
0.00686603
0.00683638
0.00680666
0.0067769
0.00674709
0.00671721
0.00668727
0.00665725
0.00662718
0.00659706
0.00656688
0.00653663
0.00650632
0.00647596
0.00644555
0.00641506
0.0063845
0.0063539
0.00632326
0.00629258
0.00626183
0.00623104
0.00620021
0.00616933
0.00613841
0.0061074
0.00607634
0.00604523
0.00601409
0.00598287
0.00595161
0.00592031
0.00588898
0.00585761
0.00582619
0.00579471
0.00576316
0.00573156
0.0056999
0.00566819
0.00563642
0.00560463
0.0055728
0.00554094
0.00550904
0.00547711
0.00544518
0.00541323
0.00538125
0.00534924
0.00531719
0.00528513
0.00525304
0.00522092
0.00518874
0.0051565
0.00512422
0.00509189
0.00505953
0.00502716
0.00499481
0.00496245
0.00493011
0.00489778
0.00486546
0.00483317
0.00480093
0.00476872
0.00473654
0.00470441
0.00467233
0.00464033
0.00460842
0.00457663
0.00454494
0.00451338
0.00448193
0.00445061
0.00441942
0.00438839
0.00435752
0.00432679
0.00429619
0.00426571
0.00423533
0.00420505
0.00417485
0.00414473
0.00411472
0.00408483
0.00405507
0.00402545
0.00399597
0.00396664
0.00393747
0.00390845
0.00387962
0.00385103
0.00382269
0.00379464
0.00376687
0.00373939
0.00371223
0.0036854
0.00365892
0.00363279
0.00360698
0.00358151
0.00355638
0.00353159
0.00350713
0.003483
0.00345923
0.00343581
0.00341278
0.00339014
0.0033679
0.00334609
0.0033247
0.00330379
0.00328336
0.00326344
0.00324405
0.00322522
0.00320696
0.00318929
0.00317222
0.00315578
0.00314
0.0031249
0.00311052
0.00309687
0.00308398
0.00307182
0.00306044
0.00304986
0.0030401
0.00303117
0.00302307
0.00301582
0.0030095
0.00300407
0.00299952
0.00299587
0.0029931
0.00299122
0.00299029
)
;

boundaryField
{
    INLET
    {
        type            cyclic;
    }
    OUTLET
    {
        type            cyclic;
    }
    CENTER
    {
        type            symmetryPlane;
    }
    WALL
    {
        type            calculated;
        value           uniform 2e-10;
    }
    frontAndBackPlanes
    {
        type            empty;
    }
}


// ************************************************************************* //
