/*--------------------------------*- C++ -*----------------------------------*\
| =========                 |                                                 |
| \\      /  F ield         | OpenFOAM: The Open Source CFD Toolbox           |
|  \\    /   O peration     | Version:  v1806                                 |
|   \\  /    A nd           | Web:      www.OpenFOAM.com                      |
|    \\/     M anipulation  |                                                 |
\*---------------------------------------------------------------------------*/
FoamFile
{
    version     2.0;
    format      ascii;
    class       volScalarField;
    location    "10000";
    object      nutL_DNS;
}
// * * * * * * * * * * * * * * * * * * * * * * * * * * * * * * * * * * * * * //

dimensions      [0 2 -1 0 0 0 0];


internalField   nonuniform List<scalar> 
1025
(
2.06046e-11
3.4923e-10
1.4112e-09
3.45509e-09
8.12001e-09
1.34022e-08
2.43899e-08
3.59149e-08
5.41098e-08
7.60462e-08
9.85002e-08
1.34747e-07
1.7165e-07
2.13404e-07
2.68765e-07
3.2443e-07
3.90213e-07
4.66368e-07
5.44321e-07
6.37152e-07
7.35496e-07
8.38925e-07
9.61325e-07
1.08246e-06
1.21349e-06
1.36827e-06
1.51311e-06
1.67205e-06
1.8621e-06
2.03291e-06
2.21729e-06
2.44638e-06
2.6487e-06
2.85132e-06
3.12323e-06
3.36739e-06
3.57624e-06
3.89499e-06
4.19677e-06
4.39281e-06
4.76298e-06
5.14656e-06
5.34467e-06
5.72571e-06
6.17372e-06
6.43069e-06
6.78467e-06
7.29251e-06
7.6536e-06
7.94149e-06
8.51286e-06
9.02474e-06
9.23664e-06
9.83064e-06
1.05051e-05
1.07682e-05
1.12466e-05
1.19888e-05
1.24645e-05
1.27679e-05
1.35771e-05
1.43367e-05
1.45513e-05
1.52645e-05
1.62014e-05
1.66077e-05
1.70572e-05
1.80618e-05
1.88544e-05
1.90657e-05
2.00293e-05
2.11756e-05
2.1512e-05
2.20981e-05
2.33157e-05
2.41674e-05
2.43638e-05
2.55626e-05
2.69331e-05
2.72268e-05
2.79177e-05
2.93532e-05
3.031e-05
3.05026e-05
3.18871e-05
3.34746e-05
3.3792e-05
3.45346e-05
3.61821e-05
3.73102e-05
3.74989e-05
3.90011e-05
4.0822e-05
4.12429e-05
4.1941e-05
4.38037e-05
4.52026e-05
4.53796e-05
4.69084e-05
4.89393e-05
4.95526e-05
5.01478e-05
5.22236e-05
5.39444e-05
5.41114e-05
5.56009e-05
5.7843e-05
5.87412e-05
5.91201e-05
6.13739e-05
6.35392e-05
6.37008e-05
6.50568e-05
6.74782e-05
6.87068e-05
6.88497e-05
7.12756e-05
7.38676e-05
7.40391e-05
7.52e-05
7.77986e-05
7.94235e-05
7.95453e-05
8.18306e-05
8.4552e-05
8.50453e-05
8.59772e-05
8.8718e-05
9.07738e-05
9.08742e-05
9.29443e-05
9.58647e-05
9.6688e-05
9.7302e-05
0.000100191
0.000102625
0.000102675
0.000104572
0.000107596
0.000108711
0.00010913
0.000112079
0.000114826
0.00011492
0.00011662
0.000119692
0.000121071
0.000121325
0.000124321
0.000127304
0.000127412
0.000129029
0.000132105
0.000133587
0.000133741
0.000136816
0.000139934
0.000139997
0.000141581
0.000144684
0.000146259
0.000146467
0.000149538
0.000152543
0.000152648
0.000154318
0.000157358
0.000159006
0.000159163
0.000162206
0.000165335
0.000165263
0.000167037
0.00017026
0.000171576
0.000171957
0.000175019
0.000177887
0.000177926
0.00017989
0.000183021
0.000184064
0.000184924
0.000187966
0.000190228
0.000190249
0.00019277
0.000195918
0.000196488
0.000197794
0.000200875
0.00020263
0.000202713
0.000205597
0.000208682
0.000208875
0.000210591
0.000213606
0.000214841
0.000215727
0.000218612
0.000220757
0.00022101
0.000223616
0.000226677
0.000227007
0.000228581
0.000231601
0.000232937
0.000233728
0.000236644
0.000238937
0.000238891
0.000241639
0.000244722
0.000244931
0.000246813
0.000249656
0.000250854
0.000251931
0.000254757
0.000256825
0.000257167
0.0002601
0.0002627
0.000262831
0.000265186
0.000268014
0.000268768
0.000270436
0.000273446
0.000274795
0.000275595
0.000278708
0.00028077
0.000281023
0.000283891
0.000286583
0.000286666
0.000289298
0.0002924
0.000292674
0.00029475
0.000297733
0.000298657
0.000300306
0.000303102
0.000304538
0.000305742
0.000308799
0.000310776
0.000311273
0.000314368
0.000316665
0.000317029
0.00031992
0.000322601
0.000322881
0.000325871
0.000328651
0.000328717
0.000331619
0.000334487
0.000334978
0.000337527
0.000340428
0.000341026
0.000343402
0.000346332
0.000346912
0.000349369
0.000352668
0.000353442
0.000355305
0.000358424
0.000359591
0.000361529
0.000364679
0.00036584
0.000367787
0.000370967
0.000372185
0.000374205
0.000377356
0.000378498
0.000380593
0.000383604
0.000384498
0.000387208
0.000390249
0.000390818
0.000393859
0.000396994
0.000397294
0.000400359
0.00040352
0.000403791
0.00040727
0.000410529
0.000410444
0.000413953
0.00041724
0.000417516
0.000420796
0.000423429
0.000424355
0.000428006
0.000430376
0.000431694
0.000435037
0.000436707
0.000438785
0.000442227
0.000443534
0.000446329
0.000449805
0.00045044
0.000453679
0.000456882
0.000457488
0.000461058
0.000463972
0.000465373
0.00046898
0.000471142
0.00047298
0.000476297
0.000477682
0.000480745
0.000484554
0.000485529
0.000488611
0.000491647
0.0004934
0.000496912
0.000498872
0.000501571
0.000505113
0.000505818
0.000509768
0.000513341
0.000514012
0.000518071
0.000520872
0.000522802
0.000526101
0.000527664
0.000531333
0.000535097
0.00053627
0.000540098
0.000542542
0.000544966
0.000548834
0.000549967
0.0005539
0.000557402
0.000558972
0.00056287
0.000564974
0.000568547
0.000572078
0.000573213
0.00057728
0.000580406
0.000583042
0.000586656
0.000588382
0.000592063
0.0005957
0.000598401
0.000601682
0.000603442
0.000607659
0.000610883
0.000613649
0.000617459
0.000619258
0.000623658
0.000626966
0.000629272
0.000633244
0.000635083
0.000638981
0.000642909
0.000645877
0.000649402
0.000651756
0.000655758
0.000658665
0.000662187
0.00066636
0.000668831
0.000672439
0.000674907
0.000679654
0.000683866
0.000685732
0.000690006
0.000692004
0.000696275
0.000700577
0.00070374
0.00070752
0.000710077
0.000714458
0.000717016
0.00072147
0.000725401
0.000728625
0.000733116
0.000735156
0.000739713
0.000743088
0.000747078
0.000751029
0.000753667
0.000758328
0.00076176
0.000766498
0.000769273
0.000773352
0.000777527
0.00078094
0.000785043
0.000788597
0.00079277
0.000795636
0.000800632
0.000804123
0.000808988
0.000812627
0.000816297
0.000821415
0.000824312
0.000828642
0.000832323
0.000837446
0.000840478
0.000844937
0.00084943
0.00085316
0.000857651
0.000861521
0.000866834
0.000870574
0.000874441
0.000878311
0.000883709
0.000887653
0.00089158
0.000895513
0.000900213
0.000905007
0.000909783
0.000913714
0.000917691
0.000922632
0.000927556
0.000932433
0.000935653
0.000940519
0.000945526
0.000949782
0.000953881
0.000958824
0.000963839
0.000968928
0.00097238
0.000977463
0.000982557
0.000986923
0.000991283
0.000996443
0.00100161
0.00100685
0.00101128
0.00101569
0.0010201
0.0010254
0.0010308
0.00103526
0.00104066
0.00104618
0.00104986
0.00105523
0.00106071
0.00106535
0.00107097
0.00107561
0.00108115
0.00108675
0.00109154
0.00109623
0.00110192
0.00110668
0.00111244
0.00111819
0.00112301
0.0011279
0.00113372
0.0011386
0.00114457
0.00114944
0.0011554
0.00116041
0.00116539
0.00117136
0.00117739
0.00118252
0.00118862
0.00119367
0.00119876
0.00120602
0.0012101
0.00121641
0.00122266
0.00122781
0.00123309
0.00123836
0.00124355
0.00125111
0.00125652
0.00126289
0.00126937
0.00127366
0.00128018
0.00128554
0.00129219
0.00129769
0.00130309
0.00130857
0.00131646
0.00132208
0.00132646
0.00133438
0.00134003
0.00134696
0.00135138
0.00135821
0.00136514
0.00136963
0.00137662
0.00138367
0.00139073
0.00139518
0.00140228
0.0014082
0.001414
0.00142255
0.001427
0.00143409
0.00144031
0.00144649
0.00145401
0.00145948
0.00146763
0.00147316
0.00147999
0.00148679
0.00149223
0.0015004
0.00150584
0.0015133
0.00152078
0.00152616
0.00153362
0.00153967
0.00154712
0.00155388
0.00156059
0.001568
0.00157325
0.00158211
0.00158955
0.00159404
0.00160215
0.00160948
0.0016161
0.00162498
0.00163008
0.00163735
0.00164543
0.00165128
0.00165934
0.00166656
0.00167376
0.00168094
0.00168743
0.00169475
0.00170345
0.00170971
0.00171771
0.00172571
0.00173119
0.00173985
0.00174691
0.00175325
0.00176282
0.0017689
0.00177492
0.00178518
0.00179214
0.00179906
0.00180667
0.00181424
0.00182281
0.00182967
0.00183652
0.00184402
0.0018515
0.00185829
0.00186746
0.00187665
0.00188164
0.0018897
0.00189952
0.00190618
0.00191351
0.00192151
0.00192879
0.00193717
0.00194691
0.0019537
0.00196089
0.0019699
0.00197774
0.00198489
0.00199386
0.00200231
0.00200888
0.00201592
0.00202669
0.00203507
0.00204149
0.00205103
0.00205864
0.00206622
0.00207252
0.00208263
0.0020921
0.00209761
0.00210701
0.00211513
0.00212189
0.00212992
0.0021399
0.00215057
0.00215586
0.00216309
0.00217369
0.00218223
0.00218869
0.00219649
0.00220632
0.00221473
0.00222105
0.00222731
0.00223911
0.00224885
0.00225355
0.00226241
0.00227272
0.00228086
0.00228685
0.00229493
0.00230363
0.00231228
0.00232242
0.00232885
0.00233738
0.00234744
0.00235374
0.00236283
0.00237124
0.00237739
0.00238858
0.00239688
0.00240225
0.00241268
0.00242215
0.00242931
0.00243739
0.00244544
0.00245409
0.0024627
0.00247356
0.0024821
0.00248657
0.00249564
0.00250403
0.00251236
0.00252301
0.00252954
0.00253666
0.00254545
0.00255357
0.00256226
0.00257153
0.00258013
0.00258566
0.00259237
0.00260207
0.00261289
0.00262124
0.00262772
0.0026366
0.00264298
0.00265171
0.00266043
0.00266908
0.00267769
0.00268374
0.00269286
0.00270002
0.002709
0.00271732
0.00272307
0.0027344
0.00274379
0.00274802
0.00275664
0.00276462
0.00277119
0.00278084
0.00278923
0.00279757
0.00280703
0.00281384
0.00281939
0.00282747
0.00283406
0.00284318
0.00285227
0.00285862
0.00286433
0.00287318
0.00288198
0.00288804
0.00289667
0.00290525
0.00291434
0.0029207
0.00292963
0.00293795
0.00294347
0.00295218
0.00296141
0.00296786
0.00297305
0.00298147
0.00299096
0.00299705
0.00300521
0.00301116
0.00301697
0.00302766
0.00303388
0.00304057
0.00304885
0.00305646
0.00306175
0.00306807
0.00307711
0.00308268
0.00308817
0.00309636
0.00310221
0.00310514
0.00311304
0.00312089
0.0031235
0.0031294
0.00313747
0.00314262
0.00314821
0.0031537
0.00315908
0.00316669
0.00317417
0.00317977
0.00318241
0.00318727
0.00319541
0.00320344
0.00321084
0.0032158
0.00322064
0.00322826
0.00323339
0.00323788
0.00324806
0.00325337
0.00325852
0.0032684
0.00327234
0.00327715
0.00328478
0.00329179
0.00329624
0.00330351
0.00331068
0.00331231
0.0033192
0.00332598
0.00332971
0.00333622
0.00334364
0.00334794
0.00335159
0.00335812
0.00336199
0.00336575
0.00336888
0.00337531
0.00337914
0.00337983
0.00338586
0.00338285
0.00340997
0.00341574
0.00339166
0.00339835
0.00340402
0.00340903
0.00341483
0.00342097
0.00342694
0.00343228
0.00343704
0.00341272
0.00341834
0.00345315
0.0034282
0.00343335
0.00346828
0.00344273
0.00344695
0.00345219
0.00342726
0.00346087
0.0034656
0.00344046
0.00344424
0.00347777
0.00348224
0.00345627
0.00345978
0.00346312
0.00346629
0.0034701
0.00347414
0.00347717
0.00348
0.00345337
0.00345608
0.00348862
0.00346134
0.00346347
0.0034661
0.00346864
0.00347087
0.00347263
0.00347485
0.00344719
0.00347826
0.00347986
0.00345155
0.00345259
0.00348324
0.00348439
0.00345557
0.00345651
0.00345723
0.00345773
0.00345763
0.00345731
0.00348698
0.00348745
0.00345755
0.00345667
0.00345592
0.00345529
0.00345406
0.00345293
0.00345192
0.00344996
0.0034481
0.00341779
0.00341598
0.00344271
0.00343983
0.00340822
0.00340572
0.00343199
0.0034284
0.00339616
0.00339291
0.00341797
0.00338532
0.00338123
0.00340535
0.00337196
0.00336733
0.00336267
0.00335714
0.00338023
0.00334621
0.0033401
0.00333426
0.00332785
0.00334948
0.0033145
0.00330746
0.00332825
0.00329249
0.00328448
0.0033044
0.00329609
0.00325987
0.00325083
0.0032694
0.00326029
0.00327826
0.00326793
0.00323001
0.00324721
0.00323608
0.0032246
0.00321327
0.00320106
0.00321667
0.00320449
0.00321908
0.00320561
0.00319199
0.00317824
0.00316357
0.00317654
0.00316154
0.00314587
0.0031574
0.00314136
0.0031246
0.00313535
0.00314594
0.00312779
0.00310891
0.0031181
0.0030985
0.00307842
0.00308607
0.00309373
0.00307199
0.0030782
0.00308436
0.00306113
0.00303757
0.00304165
0.00304542
0.00301996
0.00302273
0.00302489
0.0029972
0.00299822
0.00299859
0.0029986
0.00296812
0.0029662
0.0029642
0.00293084
0.00295772
0.00295379
0.00291783
0.00291187
0.00293705
0.00292979
0.00288929
0.0029126
0.00290283
0.00285876
0.00288022
0.00290169
0.00288797
0.00283811
0.00285663
0.00287544
0.00282026
0.00280004
0.00281525
0.00283027
0.00284521
0.00281907
0.00279096
0.00280204
0.00281247
0.00277863
0.0027426
0.00279402
0.00280054
0.00275686
0.00275976
0.00276133
0.00276121
0.00275909
0.00269791
0.0026891
0.00274023
0.00272874
0.00271366
0.00276888
0.00274885
0.00272255
0.00278292
0.00274848
0.00270484
0.00276876
0.00270657
0.00262403
0.00268294
0.00276236
0.0028855
0.00266861
0.00281507
0.00370112
)
;

boundaryField
{
    INLET
    {
        type            cyclic;
    }
    OUTLET
    {
        type            cyclic;
    }
    CENTER
    {
        type            symmetryPlane;
    }
    WALL
    {
        type            fixedValue;
        value           uniform 0;
    }
    frontAndBackPlanes
    {
        type            empty;
    }
}


// ************************************************************************* //
