/*--------------------------------*- C++ -*----------------------------------*\
| =========                 |                                                 |
| \\      /  F ield         | OpenFOAM: The Open Source CFD Toolbox           |
|  \\    /   O peration     | Version:  v1806                                 |
|   \\  /    A nd           | Web:      www.OpenFOAM.com                      |
|    \\/     M anipulation  |                                                 |
\*---------------------------------------------------------------------------*/
FoamFile
{
    version     2.0;
    format      ascii;
    class       volSymmTensorField;
    location    "10000";
    object      RS_DNS;
}
// * * * * * * * * * * * * * * * * * * * * * * * * * * * * * * * * * * * * * //

dimensions      [0 2 -2 0 0 0 0];


internalField   nonuniform List<symmTensor> 
1025
(
(4.55386e-06 -4.43289e-09 -3.96613e-10 1.37859e-10 6.71293e-13 1.96404e-06)
(3.45911e-05 -7.51268e-08 -3.08602e-09 4.34518e-09 1.13803e-11 1.42719e-05)
(9.02926e-05 -3.03533e-07 -8.22359e-09 2.42949e-08 4.59922e-11 3.57313e-05)
(0.000170555 -7.42831e-07 -1.57863e-08 6.88409e-08 1.12574e-10 6.51824e-05)
(0.000288743 -1.74505e-06 -2.73339e-08 2.00956e-07 2.64541e-10 0.000104528)
(0.000415859 -2.87702e-06 -3.98165e-08 3.53168e-07 4.36189e-10 0.000146234)
(0.000595655 -5.22988e-06 -5.81172e-08 7.32598e-07 7.92999e-10 0.00019821)
(0.000780316 -7.68763e-06 -7.69486e-08 1.1313e-06 1.16572e-09 0.000251208)
(0.00100685 -1.15518e-05 -1.00524e-07 1.82381e-06 1.75112e-09 0.000309894)
(0.00125754 -1.62196e-05 -1.26833e-07 2.68396e-06 2.45806e-09 0.00037192)
(0.00150941 -2.09094e-05 -1.53265e-07 3.54818e-06 3.16834e-09 0.000434237)
(0.00182252 -2.84603e-05 -1.86597e-07 5.06567e-06 4.30822e-09 0.000501792)
(0.00214011 -3.61894e-05 -2.20426e-07 6.62293e-06 5.47489e-09 0.000569913)
(0.00246968 -4.46389e-05 -2.5554e-07 8.35882e-06 6.74858e-09 0.000638775)
(0.00284263 -5.58602e-05 -2.95315e-07 1.0787e-05 8.43373e-09 0.000709646)
(0.00321734 -6.71343e-05 -3.35278e-07 1.32265e-05 1.01268e-08 0.000780849)
(0.00360812 -7.98285e-05 -3.76784e-07 1.60608e-05 1.20276e-08 0.000852345)
(0.00402334 -9.47409e-05 -4.20626e-07 1.95133e-05 1.42527e-08 0.000924109)
(0.00444052 -0.000109723 -4.64674e-07 2.2982e-05 1.64882e-08 0.000996211)
(0.00486928 -0.000126488 -5.09488e-07 2.70251e-05 1.89799e-08 0.00106782)
(0.00530903 -0.000144926 -5.55032e-07 3.1607e-05 2.1712e-08 0.00113898)
(0.00575085 -0.000163451 -6.0079e-07 3.62104e-05 2.4457e-08 0.00121048)
(0.00619456 -0.000183729 -6.46009e-07 4.15038e-05 2.7449e-08 0.00128078)
(0.00664024 -0.000205249 -6.90921e-07 4.72816e-05 3.0616e-08 0.00135037)
(0.00708802 -0.00022687 -7.36045e-07 5.30867e-05 3.3798e-08 0.00142029)
(0.00752703 -0.000249902 -7.79363e-07 5.96224e-05 3.71738e-08 0.00148861)
(0.00796129 -0.00027386 -8.2162e-07 6.66284e-05 4.0677e-08 0.00155604)
(0.0083976 -0.000297932 -8.64077e-07 7.36674e-05 4.41968e-08 0.00162379)
(0.00881717 -0.000322912 -9.03911e-07 8.14041e-05 4.78378e-08 0.00168983)
(0.00922557 -0.000348564 -9.41957e-07 8.96417e-05 5.1569e-08 0.00175476)
(0.0096359 -0.000374339 -9.80184e-07 9.79187e-05 5.5318e-08 0.00182001)
(0.0100264 -0.000400525 -1.01561e-06 0.000106796 5.9118e-08 0.00188371)
(0.0103982 -0.00042711 -1.0484e-06 0.000116245 6.29675e-08 0.00194597)
(0.0107718 -0.000453823 -1.08135e-06 0.00012574 6.68356e-08 0.00200854)
(0.0111279 -0.0004806 -1.11196e-06 0.000135689 7.07058e-08 0.00206995)
(0.0114564 -0.000507408 -1.13892e-06 0.00014631 7.45698e-08 0.00212946)
(0.0117864 -0.00053434 -1.166e-06 0.000156979 7.84518e-08 0.00218925)
(0.0121058 -0.000561217 -1.1917e-06 0.000167927 8.23229e-08 0.00224845)
(0.0123878 -0.000587634 -1.21266e-06 0.00017966 8.61189e-08 0.00230517)
(0.012671 -0.000614175 -1.23372e-06 0.000191449 8.99327e-08 0.00236214)
(0.0129535 -0.00064079 -1.25463e-06 0.000203326 9.37568e-08 0.00241925)
(0.0131886 -0.00066632 -1.26973e-06 0.000216099 9.74145e-08 0.00247313)
(0.0134247 -0.000691971 -1.2849e-06 0.000228931 1.01089e-07 0.00252727)
(0.0136619 -0.000717742 -1.30015e-06 0.000241825 1.04782e-07 0.00258167)
(0.0138614 -0.000742334 -1.31087e-06 0.000255399 1.08297e-07 0.00263342)
(0.0140522 -0.000766725 -1.32051e-06 0.00026919 1.11782e-07 0.00268471)
(0.014244 -0.000791231 -1.3302e-06 0.000283046 1.15284e-07 0.00273625)
(0.014413 -0.000814863 -1.33717e-06 0.00029732 1.1866e-07 0.00278611)
(0.014562 -0.000837742 -1.34175e-06 0.000311971 1.21929e-07 0.00283454)
(0.0147117 -0.00086073 -1.34636e-06 0.000326691 1.25214e-07 0.00288319)
(0.0148529 -0.00088337 -1.34992e-06 0.000341609 1.2845e-07 0.00293126)
(0.0149642 -0.000904594 -1.34994e-06 0.000357015 1.31487e-07 0.00297683)
(0.015076 -0.000925918 -1.34996e-06 0.000372493 1.34538e-07 0.00302262)
(0.0151883 -0.000947343 -1.34998e-06 0.000388044 1.37603e-07 0.00306862)
(0.0152699 -0.000967051 -1.34634e-06 0.00040405 1.40431e-07 0.0031117)
(0.0153483 -0.000986653 -1.34226e-06 0.000420175 1.43245e-07 0.00315464)
(0.0154272 -0.00100635 -1.33817e-06 0.000436377 1.46072e-07 0.00319778)
(0.0154903 -0.00102506 -1.33214e-06 0.000452816 1.48767e-07 0.00323926)
(0.0155401 -0.00104294 -1.32443e-06 0.00046947 1.51352e-07 0.00327938)
(0.01559 -0.00106091 -1.31669e-06 0.000486203 1.53949e-07 0.00331968)
(0.0156363 -0.00107866 -1.30843e-06 0.000503042 1.56518e-07 0.00335966)
(0.0156617 -0.00109488 -1.29753e-06 0.000520111 1.58883e-07 0.00339701)
(0.0156872 -0.00111118 -1.28658e-06 0.000537259 1.6126e-07 0.00343453)
(0.0157128 -0.00112756 -1.27557e-06 0.000554487 1.63647e-07 0.00347223)
(0.015723 -0.00114265 -1.26252e-06 0.000571839 1.65867e-07 0.0035077)
(0.015728 -0.00115737 -1.24873e-06 0.000589287 1.68037e-07 0.00354252)
(0.0157331 -0.00117215 -1.23488e-06 0.000606817 1.70217e-07 0.0035775)
(0.0157328 -0.00118647 -1.22023e-06 0.00062441 1.72338e-07 0.00361166)
(0.015721 -0.00119971 -1.20394e-06 0.000642045 1.74322e-07 0.00364386)
(0.0157092 -0.00121301 -1.18758e-06 0.000659764 1.76316e-07 0.00367621)
(0.0156973 -0.00122638 -1.17114e-06 0.000677566 1.78319e-07 0.00370872)
(0.0156737 -0.00123846 -1.1529e-06 0.000695304 1.80161e-07 0.00373879)
(0.0156482 -0.00125039 -1.13432e-06 0.000713103 1.81987e-07 0.00376861)
(0.0156226 -0.00126239 -1.11566e-06 0.000730987 1.83821e-07 0.00379858)
(0.0155927 -0.00127387 -1.09623e-06 0.000748845 1.85595e-07 0.00382755)
(0.0155564 -0.00128456 -1.07572e-06 0.000766625 1.87273e-07 0.00385497)
(0.0155198 -0.0012953 -1.05512e-06 0.00078449 1.8896e-07 0.00388252)
(0.0154832 -0.0013061 -1.03441e-06 0.000802439 1.90655e-07 0.00391019)
(0.015439 -0.00131577 -1.01234e-06 0.000820138 1.92216e-07 0.00393554)
(0.015394 -0.00132538 -9.90055e-07 0.000837892 1.93772e-07 0.00396079)
(0.0153488 -0.00133504 -9.67667e-07 0.000855729 1.95336e-07 0.00398616)
(0.0153009 -0.00134425 -9.44705e-07 0.000873461 1.96845e-07 0.00401059)
(0.0152494 -0.00135285 -9.20997e-07 0.00089102 1.98278e-07 0.00403368)
(0.0151978 -0.00136148 -8.97178e-07 0.000908662 1.99718e-07 0.00405687)
(0.0151458 -0.00137016 -8.73245e-07 0.000926387 2.01165e-07 0.00408018)
(0.01509 -0.00137793 -8.48433e-07 0.000943721 2.02492e-07 0.00410144)
(0.0150336 -0.00138565 -8.23431e-07 0.000961092 2.03814e-07 0.0041226)
(0.014977 -0.00139341 -7.98312e-07 0.000978544 2.05143e-07 0.00414385)
(0.0149191 -0.00140084 -7.72847e-07 0.000995852 2.06424e-07 0.00416435)
(0.0148594 -0.00140774 -7.4691e-07 0.00101289 2.07629e-07 0.0041836)
(0.0147995 -0.00141468 -7.20854e-07 0.00103 2.08839e-07 0.00420294)
(0.0147392 -0.00142164 -6.94675e-07 0.0010472 2.10055e-07 0.00422237)
(0.0146777 -0.00142793 -6.68096e-07 0.00106393 2.11164e-07 0.00424013)
(0.0146157 -0.00143413 -6.41346e-07 0.00108065 2.1226e-07 0.00425769)
(0.0145534 -0.00144037 -6.14471e-07 0.00109745 2.13361e-07 0.00427533)
(0.0144908 -0.00144639 -5.87446e-07 0.00111411 2.14428e-07 0.00429244)
(0.0144277 -0.00145194 -5.60248e-07 0.00113039 2.15419e-07 0.00430835)
(0.0143644 -0.00145751 -5.32924e-07 0.00114675 2.16414e-07 0.00432433)
(0.0143008 -0.00146312 -5.0547e-07 0.00116318 2.17413e-07 0.00434038)
(0.0142374 -0.00146823 -4.78028e-07 0.00117914 2.18332e-07 0.00435514)
(0.0141738 -0.00147323 -4.50499e-07 0.00119502 2.1923e-07 0.00436958)
(0.0141099 -0.00147824 -4.22841e-07 0.00121096 2.20132e-07 0.00438409)
(0.0140461 -0.00148315 -3.95137e-07 0.00122682 2.21015e-07 0.0043983)
(0.013983 -0.00148763 -3.67603e-07 0.00124218 2.21822e-07 0.00441132)
(0.0139195 -0.00149212 -3.39939e-07 0.00125761 2.22633e-07 0.0044244)
(0.0138558 -0.00149664 -3.12144e-07 0.00127311 2.23448e-07 0.00443754)
(0.0137931 -0.00150082 -2.8454e-07 0.00128818 2.24199e-07 0.00444974)
(0.0137306 -0.00150485 -2.56959e-07 0.00130307 2.2492e-07 0.0044615)
(0.0136679 -0.00150891 -2.29248e-07 0.00131803 2.25645e-07 0.00447331)
(0.0136051 -0.00151292 -2.0146e-07 0.00133297 2.26361e-07 0.00448503)
(0.0135441 -0.00151654 -1.73954e-07 0.0013473 2.26992e-07 0.00449557)
(0.0134828 -0.00152018 -1.46319e-07 0.0013617 2.27625e-07 0.00450617)
(0.0134212 -0.00152383 -1.18554e-07 0.00137616 2.28262e-07 0.00451681)
(0.0133607 -0.00152727 -9.09171e-08 0.00139027 2.28848e-07 0.0045268)
(0.0133011 -0.00153053 -6.33635e-08 0.00140409 2.29393e-07 0.00453627)
(0.0132412 -0.00153381 -3.56799e-08 0.00141797 2.29941e-07 0.00454578)
(0.0131811 -0.00153711 -7.86614e-09 0.00143192 2.30492e-07 0.00455534)
(0.0131235 -0.00154005 1.94992e-08 0.00144517 2.30957e-07 0.00456378)
(0.0130656 -0.001543 4.69873e-08 0.00145847 2.31422e-07 0.00457224)
(0.0130075 -0.00154596 7.46048e-08 0.00147183 2.3189e-07 0.00458075)
(0.0129503 -0.0015488 1.02019e-07 0.00148493 2.32326e-07 0.00458884)
(0.0128946 -0.00155145 1.29114e-07 0.00149764 2.32717e-07 0.00459634)
(0.0128387 -0.00155412 1.56338e-07 0.00151041 2.3311e-07 0.00460388)
(0.0127824 -0.00155679 1.83689e-07 0.00152324 2.33505e-07 0.00461145)
(0.0127286 -0.00155922 2.10307e-07 0.00153547 2.33843e-07 0.0046182)
(0.012675 -0.00156162 2.36918e-07 0.00154766 2.34173e-07 0.00462485)
(0.0126211 -0.00156404 2.63651e-07 0.0015599 2.34505e-07 0.00463152)
(0.0125679 -0.00156638 2.90153e-07 0.00157196 2.34824e-07 0.00463795)
(0.0125166 -0.00156854 3.15977e-07 0.00158356 2.35109e-07 0.00464377)
(0.0124651 -0.00157071 3.41923e-07 0.00159522 2.35396e-07 0.00464961)
(0.0124134 -0.0015729 3.67989e-07 0.00160693 2.35685e-07 0.00465549)
(0.0123638 -0.00157491 3.93221e-07 0.00161813 2.35954e-07 0.00466075)
(0.0123147 -0.00157687 4.18259e-07 0.00162921 2.36218e-07 0.00466583)
(0.0122654 -0.00157884 4.43414e-07 0.00164034 2.36484e-07 0.00467093)
(0.0122165 -0.00158077 4.68414e-07 0.00165137 2.36748e-07 0.0046759)
(0.0121699 -0.00158254 4.92451e-07 0.00166188 2.37005e-07 0.00468027)
(0.012123 -0.00158432 5.166e-07 0.00167244 2.37264e-07 0.00468465)
(0.012076 -0.0015861 5.40863e-07 0.00168304 2.37523e-07 0.00468906)
(0.0120307 -0.00158777 5.64362e-07 0.00169324 2.37772e-07 0.00469301)
(0.0119863 -0.00158937 5.87506e-07 0.00170324 2.38015e-07 0.00469674)
(0.0119417 -0.00159099 6.10758e-07 0.00171328 2.38259e-07 0.00470048)
(0.0118972 -0.00159259 6.33981e-07 0.0017233 2.38499e-07 0.00470416)
(0.0118552 -0.00159404 6.56221e-07 0.00173276 2.38691e-07 0.00470727)
(0.011813 -0.0015955 6.78565e-07 0.00174226 2.38885e-07 0.00471039)
(0.0117706 -0.00159696 7.01014e-07 0.0017518 2.3908e-07 0.00471352)
(0.0117297 -0.00159834 7.22922e-07 0.00176101 2.39219e-07 0.00471632)
(0.0116898 -0.00159966 7.44458e-07 0.00176998 2.39319e-07 0.00471886)
(0.0116498 -0.00160099 7.66096e-07 0.00177899 2.39419e-07 0.00472142)
(0.0116097 -0.00160231 7.87786e-07 0.00178802 2.39514e-07 0.00472396)
(0.0115721 -0.00160351 8.08584e-07 0.00179648 2.39483e-07 0.00472597)
(0.0115344 -0.00160471 8.29479e-07 0.00180497 2.39453e-07 0.00472799)
(0.0114965 -0.00160591 8.50474e-07 0.00181351 2.39422e-07 0.00473002)
(0.0114598 -0.00160706 8.71064e-07 0.00182177 2.3932e-07 0.00473178)
(0.0114243 -0.00160815 8.91297e-07 0.00182977 2.39153e-07 0.0047333)
(0.0113886 -0.00160924 9.11625e-07 0.00183781 2.38985e-07 0.00473483)
(0.0113528 -0.00161034 9.32036e-07 0.00184588 2.38815e-07 0.00473636)
(0.0113194 -0.00161132 9.51684e-07 0.0018534 2.38547e-07 0.00473741)
(0.0112858 -0.00161231 9.71424e-07 0.00186096 2.38279e-07 0.00473847)
(0.0112521 -0.00161331 9.91257e-07 0.00186855 2.38009e-07 0.00473953)
(0.0112196 -0.00161426 1.01076e-06 0.00187589 2.37717e-07 0.00474037)
(0.0111881 -0.00161515 1.02995e-06 0.00188299 2.37402e-07 0.004741)
(0.0111564 -0.00161606 1.04923e-06 0.00189012 2.37086e-07 0.00474162)
(0.0111247 -0.00161697 1.06859e-06 0.00189728 2.36768e-07 0.00474225)
(0.0110952 -0.00161778 1.08723e-06 0.00190394 2.36444e-07 0.00474247)
(0.0110655 -0.0016186 1.10595e-06 0.00191062 2.36118e-07 0.00474269)
(0.0110357 -0.00161943 1.12477e-06 0.00191734 2.35791e-07 0.00474291)
(0.011007 -0.00162021 1.14325e-06 0.00192382 2.35466e-07 0.00474293)
(0.0109792 -0.00162096 1.16144e-06 0.00193009 2.35144e-07 0.00474277)
(0.0109513 -0.00162171 1.17971e-06 0.00193638 2.3482e-07 0.00474261)
(0.0109233 -0.00162246 1.19803e-06 0.00194268 2.34495e-07 0.00474244)
(0.0108973 -0.00162313 1.21568e-06 0.00194854 2.3419e-07 0.00474192)
(0.0108712 -0.00162382 1.23343e-06 0.00195443 2.33883e-07 0.00474141)
(0.0108449 -0.0016245 1.25127e-06 0.00196035 2.33575e-07 0.00474089)
(0.0108198 -0.00162515 1.26868e-06 0.00196602 2.3329e-07 0.00474019)
(0.0107953 -0.00162577 1.28581e-06 0.00197152 2.33022e-07 0.00473935)
(0.0107708 -0.00162639 1.30303e-06 0.00197705 2.32753e-07 0.0047385)
(0.0107464 -0.00162701 1.3202e-06 0.00198255 2.32489e-07 0.00473761)
(0.0107235 -0.00162758 1.33654e-06 0.00198769 2.32267e-07 0.00473647)
(0.0107006 -0.00162815 1.35296e-06 0.00199285 2.32045e-07 0.00473531)
(0.0106776 -0.00162872 1.36946e-06 0.00199803 2.31821e-07 0.00473415)
(0.0106557 -0.00162925 1.38517e-06 0.00200296 2.31621e-07 0.00473281)
(0.0106343 -0.00162977 1.40054e-06 0.00200777 2.31432e-07 0.00473137)
(0.0106127 -0.00163029 1.41599e-06 0.0020126 2.31243e-07 0.00472993)
(0.0105916 -0.0016308 1.43116e-06 0.00201736 2.31055e-07 0.00472841)
(0.0105716 -0.00163127 1.44534e-06 0.00202184 2.30879e-07 0.00472671)
(0.0105515 -0.00163174 1.45959e-06 0.00202634 2.30701e-07 0.004725)
(0.0105313 -0.00163222 1.47391e-06 0.00203087 2.30522e-07 0.00472328)
(0.0105124 -0.00163266 1.48714e-06 0.0020351 2.30334e-07 0.00472138)
(0.0104937 -0.00163309 1.50019e-06 0.00203929 2.30143e-07 0.00471942)
(0.0104748 -0.00163352 1.51331e-06 0.0020435 2.29952e-07 0.00471746)
(0.0104566 -0.00163394 1.52601e-06 0.00204758 2.29744e-07 0.0047154)
(0.0104391 -0.00163434 1.53807e-06 0.00205148 2.29516e-07 0.00471322)
(0.0104216 -0.00163473 1.5502e-06 0.00205539 2.29287e-07 0.00471103)
(0.010404 -0.00163513 1.56236e-06 0.00205931 2.29056e-07 0.00470882)
(0.0103877 -0.00163549 1.57364e-06 0.00206293 2.2879e-07 0.00470644)
(0.0103713 -0.00163585 1.58497e-06 0.00206656 2.28523e-07 0.00470404)
(0.0103549 -0.00163621 1.59636e-06 0.00207021 2.28254e-07 0.00470162)
(0.0103392 -0.00163655 1.60724e-06 0.00207367 2.27982e-07 0.0046991)
(0.010324 -0.00163688 1.61786e-06 0.00207704 2.27708e-07 0.00469651)
(0.0103087 -0.00163721 1.62854e-06 0.00208043 2.27433e-07 0.0046939)
(0.0102936 -0.00163754 1.63903e-06 0.00208375 2.27165e-07 0.00469125)
(0.0102794 -0.00163784 1.64897e-06 0.00208687 2.26918e-07 0.00468848)
(0.0102651 -0.00163814 1.65895e-06 0.00209001 2.2667e-07 0.0046857)
(0.0102508 -0.00163844 1.66899e-06 0.00209316 2.26421e-07 0.0046829)
(0.0102374 -0.00163872 1.67845e-06 0.00209608 2.26195e-07 0.00467998)
(0.0102241 -0.00163899 1.68789e-06 0.00209898 2.2597e-07 0.00467704)
(0.0102108 -0.00163927 1.69738e-06 0.0021019 2.25745e-07 0.00467408)
(0.010198 -0.00163953 1.70668e-06 0.00210468 2.25507e-07 0.00467105)
(0.0101856 -0.00163978 1.71586e-06 0.00210737 2.25261e-07 0.00466796)
(0.0101731 -0.00164003 1.72508e-06 0.00211007 2.25013e-07 0.00466485)
(0.0101609 -0.00164028 1.7343e-06 0.00211272 2.24748e-07 0.0046617)
(0.0101493 -0.0016405 1.74345e-06 0.0021152 2.24432e-07 0.00465847)
(0.0101377 -0.00164073 1.75264e-06 0.00211769 2.24114e-07 0.00465523)
(0.010126 -0.00164096 1.76188e-06 0.0021202 2.23794e-07 0.00465197)
(0.0101152 -0.00164117 1.7711e-06 0.00212251 2.23401e-07 0.00464863)
(0.0101044 -0.00164137 1.78035e-06 0.00212481 2.23e-07 0.00464526)
(0.0100935 -0.00164158 1.78964e-06 0.00212712 2.22597e-07 0.00464188)
(0.0100831 -0.00164178 1.79893e-06 0.00212931 2.22159e-07 0.00463844)
(0.010073 -0.00164196 1.80824e-06 0.00213143 2.21698e-07 0.00463497)
(0.0100629 -0.00164215 1.81759e-06 0.00213356 2.21235e-07 0.00463147)
(0.010053 -0.00164233 1.82697e-06 0.00213564 2.20758e-07 0.00462794)
(0.0100435 -0.0016425 1.83638e-06 0.00213759 2.20255e-07 0.00462437)
(0.0100341 -0.00164267 1.84583e-06 0.00213956 2.19749e-07 0.00462077)
(0.0100246 -0.00164284 1.85533e-06 0.00214152 2.19239e-07 0.00461716)
(0.0100158 -0.00164299 1.8649e-06 0.00214332 2.18697e-07 0.0046135)
(0.010007 -0.00164314 1.87451e-06 0.00214513 2.18151e-07 0.00460981)
(0.00999813 -0.0016433 1.88417e-06 0.00214694 2.17604e-07 0.00460611)
(0.00998978 -0.00164343 1.8939e-06 0.00214863 2.17022e-07 0.00460237)
(0.00998153 -0.00164357 1.90369e-06 0.00215029 2.16429e-07 0.00459861)
(0.00997324 -0.00164371 1.91352e-06 0.00215196 2.15834e-07 0.00459483)
(0.00996527 -0.00164383 1.92337e-06 0.00215354 2.15214e-07 0.00459102)
(0.00995756 -0.00164395 1.93325e-06 0.00215507 2.14573e-07 0.00458719)
(0.00994981 -0.00164408 1.94317e-06 0.0021566 2.13929e-07 0.00458334)
(0.00994222 -0.00164419 1.95311e-06 0.00215809 2.13276e-07 0.00457946)
(0.009935 -0.0016443 1.96301e-06 0.00215949 2.12608e-07 0.00457557)
(0.00992775 -0.0016444 1.97295e-06 0.00216089 2.11936e-07 0.00457166)
(0.00992053 -0.00164451 1.98293e-06 0.00216229 2.11263e-07 0.00456773)
(0.00991377 -0.0016446 1.99284e-06 0.00216357 2.10597e-07 0.00456378)
(0.00990698 -0.00164469 2.0028e-06 0.00216486 2.09927e-07 0.00455981)
(0.00990016 -0.00164479 2.0128e-06 0.00216615 2.09254e-07 0.00455582)
(0.00989377 -0.00164487 2.0227e-06 0.00216733 2.08608e-07 0.00455183)
(0.0098874 -0.00164495 2.03263e-06 0.00216851 2.07961e-07 0.00454781)
(0.009881 -0.00164503 2.0426e-06 0.00216969 2.07311e-07 0.00454378)
(0.00987492 -0.0016451 2.05241e-06 0.00217079 2.06679e-07 0.00453974)
(0.00986894 -0.00164517 2.06219e-06 0.00217186 2.06051e-07 0.00453569)
(0.00986293 -0.00164523 2.07201e-06 0.00217294 2.05421e-07 0.00453162)
(0.00985714 -0.0016453 2.0816e-06 0.00217397 2.04806e-07 0.00452754)
(0.00985152 -0.00164535 2.09102e-06 0.00217494 2.04203e-07 0.00452345)
(0.00984586 -0.00164541 2.10049e-06 0.00217593 2.03597e-07 0.00451934)
(0.00984035 -0.00164546 2.10974e-06 0.00217688 2.03003e-07 0.00451523)
(0.00983505 -0.0016455 2.11866e-06 0.00217777 2.02426e-07 0.00451111)
(0.00982973 -0.00164555 2.12762e-06 0.00217866 2.01846e-07 0.00450698)
(0.00982448 -0.00164559 2.13646e-06 0.00217954 2.01264e-07 0.00450283)
(0.00981948 -0.00164563 2.14487e-06 0.00218034 2.0068e-07 0.00449869)
(0.00981445 -0.00164566 2.15333e-06 0.00218116 2.00093e-07 0.00449453)
(0.00980945 -0.00164569 2.16173e-06 0.00218196 1.99497e-07 0.00449035)
(0.00980472 -0.00164572 2.16966e-06 0.00218269 1.9886e-07 0.00448619)
(0.00979997 -0.00164574 2.17762e-06 0.00218343 1.98219e-07 0.00448201)
(0.00979521 -0.00164576 2.1856e-06 0.00218417 1.97573e-07 0.00447782)
(0.00979073 -0.00164578 2.19309e-06 0.00218483 1.96858e-07 0.00447364)
(0.00978623 -0.00164579 2.20061e-06 0.0021855 1.9614e-07 0.00446945)
(0.0097817 -0.00164581 2.20817e-06 0.00218616 1.95418e-07 0.00446523)
(0.00977742 -0.00164581 2.21538e-06 0.00218677 1.94633e-07 0.00446104)
(0.00977315 -0.00164582 2.2226e-06 0.00218737 1.93841e-07 0.00445684)
(0.00976885 -0.00164582 2.22984e-06 0.00218797 1.93045e-07 0.00445261)
(0.00976476 -0.00164582 2.23689e-06 0.00218852 1.92226e-07 0.00444841)
(0.00976069 -0.00164581 2.24393e-06 0.00218905 1.914e-07 0.0044442)
(0.00975659 -0.00164581 2.25101e-06 0.0021896 1.9057e-07 0.00443996)
(0.00975267 -0.0016458 2.25797e-06 0.00219009 1.8977e-07 0.00443575)
(0.00974879 -0.00164578 2.26493e-06 0.00219057 1.88976e-07 0.00443153)
(0.00974488 -0.00164577 2.27192e-06 0.00219105 1.88177e-07 0.0044273)
(0.00974112 -0.00164575 2.27881e-06 0.0021915 1.87434e-07 0.00442308)
(0.0097374 -0.00164573 2.28568e-06 0.00219193 1.86706e-07 0.00441886)
(0.00973366 -0.0016457 2.29257e-06 0.00219236 1.85976e-07 0.00441462)
(0.00973005 -0.00164568 2.29936e-06 0.00219275 1.85312e-07 0.0044104)
(0.00972648 -0.00164564 2.30612e-06 0.00219313 1.84673e-07 0.00440618)
(0.0097229 -0.00164561 2.31291e-06 0.00219352 1.84031e-07 0.00440194)
(0.00971942 -0.00164558 2.31972e-06 0.00219387 1.83441e-07 0.00439773)
(0.00971598 -0.00164554 2.32656e-06 0.0021942 1.82875e-07 0.00439351)
(0.00971253 -0.0016455 2.33343e-06 0.00219454 1.82306e-07 0.00438927)
(0.00970918 -0.00164545 2.34051e-06 0.00219484 1.81737e-07 0.00438506)
(0.00970586 -0.00164541 2.34772e-06 0.00219514 1.81167e-07 0.00438085)
(0.00970253 -0.00164536 2.35496e-06 0.00219543 1.80594e-07 0.00437661)
(0.00969928 -0.00164531 2.36258e-06 0.0021957 1.79985e-07 0.00437241)
(0.00969607 -0.00164525 2.37039e-06 0.00219595 1.7936e-07 0.0043682)
(0.00969285 -0.0016452 2.37823e-06 0.00219621 1.78732e-07 0.00436398)
(0.0096897 -0.00164514 2.38669e-06 0.00219644 1.78047e-07 0.00435978)
(0.00968659 -0.00164507 2.39541e-06 0.00219666 1.77337e-07 0.00435558)
(0.00968345 -0.00164501 2.40417e-06 0.00219688 1.76624e-07 0.00435137)
(0.0096804 -0.00164494 2.41378e-06 0.00219707 1.75806e-07 0.00434718)
(0.00967736 -0.00164487 2.4237e-06 0.00219726 1.74953e-07 0.00434299)
(0.00967431 -0.0016448 2.43367e-06 0.00219744 1.74096e-07 0.00433878)
(0.00967133 -0.00164472 2.4446e-06 0.0021976 1.73116e-07 0.00433461)
(0.00966836 -0.00164465 2.45579e-06 0.00219776 1.72106e-07 0.00433043)
(0.00966538 -0.00164457 2.46703e-06 0.00219791 1.7109e-07 0.00432623)
(0.00966247 -0.00164448 2.47918e-06 0.00219804 1.70031e-07 0.00432208)
(0.00965956 -0.0016444 2.4915e-06 0.00219816 1.68961e-07 0.00431791)
(0.00965664 -0.00164431 2.50388e-06 0.00219829 1.67887e-07 0.00431372)
(0.00965379 -0.00164422 2.517e-06 0.00219839 1.66874e-07 0.00430958)
(0.00965092 -0.00164413 2.53021e-06 0.00219849 1.65858e-07 0.00430543)
(0.00964805 -0.00164403 2.54351e-06 0.00219859 1.64846e-07 0.00430125)
(0.00964524 -0.00164393 2.55728e-06 0.00219866 1.6394e-07 0.00429713)
(0.00964242 -0.00164383 2.57112e-06 0.00219873 1.63031e-07 0.00429299)
(0.0096396 -0.00164373 2.58505e-06 0.0021988 1.62137e-07 0.00428884)
(0.00963682 -0.00164363 2.59918e-06 0.00219885 1.61329e-07 0.00428473)
(0.00963403 -0.00164352 2.61337e-06 0.0021989 1.60517e-07 0.0042806)
(0.00963124 -0.00164341 2.62759e-06 0.00219895 1.59729e-07 0.00427647)
(0.00962848 -0.0016433 2.6418e-06 0.00219898 1.58999e-07 0.00427237)
(0.00962571 -0.00164318 2.65608e-06 0.00219901 1.58266e-07 0.00426826)
(0.00962296 -0.00164306 2.67034e-06 0.00219903 1.57555e-07 0.00426416)
(0.00962021 -0.00164294 2.68457e-06 0.00219904 1.56871e-07 0.00426008)
(0.00961746 -0.00164282 2.69886e-06 0.00219905 1.56184e-07 0.00425598)
(0.00961472 -0.0016427 2.7131e-06 0.00219904 1.55508e-07 0.0042519)
(0.00961198 -0.00164257 2.72734e-06 0.00219903 1.54839e-07 0.00424783)
(0.00960923 -0.00164244 2.74165e-06 0.00219902 1.54166e-07 0.00424375)
(0.0096065 -0.00164231 2.75578e-06 0.002199 1.53498e-07 0.0042397)
(0.00960377 -0.00164218 2.76991e-06 0.00219897 1.52828e-07 0.00423564)
(0.00960102 -0.00164204 2.78411e-06 0.00219895 1.52155e-07 0.00423157)
(0.00959828 -0.0016419 2.79792e-06 0.0021989 1.51462e-07 0.00422755)
(0.00959554 -0.00164176 2.81178e-06 0.00219886 1.50766e-07 0.00422351)
(0.00959279 -0.00164162 2.82559e-06 0.00219881 1.50058e-07 0.00421946)
(0.00959004 -0.00164147 2.83893e-06 0.00219876 1.49308e-07 0.00421545)
(0.00958729 -0.00164133 2.85234e-06 0.0021987 1.48555e-07 0.00421142)
(0.00958452 -0.00164118 2.86544e-06 0.00219864 1.47798e-07 0.0042074)
(0.00958176 -0.00164102 2.87806e-06 0.00219856 1.47036e-07 0.00420341)
(0.00957898 -0.00164087 2.89074e-06 0.00219849 1.4627e-07 0.00419939)
(0.0095762 -0.00164071 2.90281e-06 0.00219841 1.45546e-07 0.00419539)
(0.00957341 -0.00164055 2.91454e-06 0.00219833 1.44844e-07 0.00419141)
(0.00957061 -0.00164039 2.92632e-06 0.00219824 1.44139e-07 0.0041874)
(0.0095678 -0.00164022 2.93733e-06 0.00219815 1.43516e-07 0.00418343)
(0.00956499 -0.00164006 2.94827e-06 0.00219805 1.42902e-07 0.00417946)
(0.00956216 -0.00163989 2.95918e-06 0.00219795 1.42298e-07 0.00417547)
(0.00955932 -0.00163972 2.96955e-06 0.00219784 1.41767e-07 0.00417152)
(0.00955647 -0.00163954 2.97997e-06 0.00219774 1.41234e-07 0.00416755)
(0.00955361 -0.00163937 2.99028e-06 0.00219762 1.40716e-07 0.00416359)
(0.00955074 -0.00163919 3.0004e-06 0.00219751 1.40221e-07 0.00415965)
(0.00954786 -0.00163901 3.01057e-06 0.00219739 1.39723e-07 0.0041557)
(0.00954496 -0.00163883 3.02062e-06 0.00219726 1.39222e-07 0.00415176)
(0.00954205 -0.00163864 3.03063e-06 0.00219713 1.38718e-07 0.00414783)
(0.00953912 -0.00163845 3.0407e-06 0.002197 1.38211e-07 0.00414389)
(0.00953618 -0.00163826 3.05056e-06 0.00219687 1.3769e-07 0.00413998)
(0.00953322 -0.00163807 3.06046e-06 0.00219673 1.37166e-07 0.00413607)
(0.00953025 -0.00163788 3.07033e-06 0.00219659 1.36633e-07 0.00413215)
(0.00952726 -0.00163768 3.08008e-06 0.00219644 1.36084e-07 0.00412825)
(0.00952425 -0.00163748 3.08988e-06 0.00219629 1.35532e-07 0.00412434)
(0.00952123 -0.00163728 3.09962e-06 0.00219614 1.34958e-07 0.00412045)
(0.00951819 -0.00163707 3.10936e-06 0.00219599 1.34368e-07 0.00411657)
(0.00951513 -0.00163687 3.11915e-06 0.00219583 1.33776e-07 0.00411267)
(0.00951205 -0.00163666 3.12897e-06 0.00219567 1.33117e-07 0.00410881)
(0.00950895 -0.00163645 3.13884e-06 0.0021955 1.32454e-07 0.00410493)
(0.00950584 -0.00163623 3.14882e-06 0.00219534 1.31752e-07 0.00410105)
(0.0095027 -0.00163602 3.15897e-06 0.00219517 1.30976e-07 0.0040972)
(0.00949955 -0.0016358 3.16916e-06 0.002195 1.30196e-07 0.00409333)
(0.00949637 -0.00163558 3.17957e-06 0.00219482 1.29345e-07 0.00408948)
(0.00949318 -0.00163535 3.1901e-06 0.00219464 1.2846e-07 0.00408563)
(0.00948997 -0.00163513 3.20068e-06 0.00219446 1.27566e-07 0.00408177)
(0.00948673 -0.0016349 3.21145e-06 0.00219428 1.26603e-07 0.00407795)
(0.00948347 -0.00163467 3.22226e-06 0.00219409 1.25635e-07 0.00407411)
(0.00948019 -0.00163444 3.23325e-06 0.0021939 1.24641e-07 0.00407028)
(0.00947688 -0.0016342 3.24444e-06 0.00219371 1.23621e-07 0.00406646)
(0.00947356 -0.00163397 3.25569e-06 0.00219352 1.22595e-07 0.00406262)
(0.00947021 -0.00163373 3.26763e-06 0.00219332 1.21571e-07 0.00405882)
(0.00946684 -0.00163349 3.27971e-06 0.00219312 1.20544e-07 0.004055)
(0.00946344 -0.00163324 3.29208e-06 0.00219292 1.19525e-07 0.00405118)
(0.00946002 -0.00163299 3.30507e-06 0.00219271 1.18531e-07 0.00404739)
(0.00945658 -0.00163275 3.31812e-06 0.0021925 1.17532e-07 0.00404358)
(0.00945311 -0.00163249 3.33163e-06 0.00219229 1.16567e-07 0.00403979)
(0.00944961 -0.00163224 3.34535e-06 0.00219208 1.15611e-07 0.004036)
(0.0094461 -0.00163198 3.35922e-06 0.00219187 1.14654e-07 0.0040322)
(0.00944255 -0.00163172 3.37358e-06 0.00219165 1.13707e-07 0.00402843)
(0.00943898 -0.00163146 3.388e-06 0.00219143 1.12756e-07 0.00402465)
(0.00943538 -0.0016312 3.40291e-06 0.00219121 1.11791e-07 0.00402088)
(0.00943175 -0.00163093 3.41813e-06 0.00219098 1.10817e-07 0.00401711)
(0.00942811 -0.00163066 3.43349e-06 0.00219075 1.09843e-07 0.00401333)
(0.00942443 -0.00163039 3.44941e-06 0.00219052 1.08895e-07 0.00400958)
(0.00942073 -0.00163012 3.46541e-06 0.00219029 1.07942e-07 0.00400582)
(0.009417 -0.00162984 3.48159e-06 0.00219006 1.07034e-07 0.00400207)
(0.00941324 -0.00162956 3.49793e-06 0.00218982 1.06155e-07 0.00399832)
(0.00940946 -0.00162928 3.51436e-06 0.00218958 1.05276e-07 0.00399456)
(0.00940564 -0.001629 3.531e-06 0.00218934 1.04434e-07 0.00399083)
(0.00940181 -0.00162872 3.54772e-06 0.0021891 1.03588e-07 0.00398708)
(0.00939795 -0.00162843 3.56461e-06 0.00218886 1.02755e-07 0.00398335)
(0.00939406 -0.00162814 3.58164e-06 0.00218861 1.01929e-07 0.00397961)
(0.00939014 -0.00162784 3.59876e-06 0.00218836 1.01104e-07 0.00397587)
(0.00938619 -0.00162755 3.61603e-06 0.00218811 1.00316e-07 0.00397215)
(0.00938222 -0.00162725 3.63337e-06 0.00218785 9.9524e-08 0.00396842)
(0.00937822 -0.00162695 3.6508e-06 0.0021876 9.87457e-08 0.0039647)
(0.00937419 -0.00162665 3.66831e-06 0.00218734 9.79727e-08 0.00396097)
(0.00937014 -0.00162634 3.68585e-06 0.00218708 9.71973e-08 0.00395725)
(0.00936605 -0.00162603 3.70325e-06 0.00218682 9.64229e-08 0.00395354)
(0.00936194 -0.00162572 3.72073e-06 0.00218656 9.5645e-08 0.00394982)
(0.00935779 -0.00162541 3.73775e-06 0.00218629 9.48743e-08 0.00394611)
(0.00935361 -0.00162509 3.75469e-06 0.00218602 9.41032e-08 0.0039424)
(0.00934941 -0.00162478 3.77138e-06 0.00218575 9.33452e-08 0.00393869)
(0.00934518 -0.00162446 3.78753e-06 0.00218548 9.2616e-08 0.00393499)
(0.00934092 -0.00162413 3.80375e-06 0.00218521 9.18834e-08 0.00393127)
(0.00933662 -0.00162381 3.81917e-06 0.00218493 9.12569e-08 0.00392758)
(0.0093323 -0.00162348 3.83459e-06 0.00218465 9.06361e-08 0.00392387)
(0.00932795 -0.00162315 3.84957e-06 0.00218437 9.00718e-08 0.00392017)
(0.00932356 -0.00162281 3.86417e-06 0.00218409 8.95593e-08 0.00391647)
(0.00931916 -0.00162248 3.87868e-06 0.0021838 8.90506e-08 0.00391277)
(0.00931471 -0.00162214 3.89223e-06 0.00218352 8.85814e-08 0.00390908)
(0.00931024 -0.0016218 3.90585e-06 0.00218323 8.811e-08 0.00390537)
(0.00930573 -0.00162146 3.91844e-06 0.00218294 8.76095e-08 0.00390168)
(0.00930119 -0.00162111 3.93072e-06 0.00218264 8.70977e-08 0.00389799)
(0.00929663 -0.00162076 3.9423e-06 0.00218235 8.65523e-08 0.00389429)
(0.00929203 -0.00162041 3.95268e-06 0.00218205 8.59529e-08 0.0038906)
(0.0092874 -0.00162006 3.96306e-06 0.00218175 8.53498e-08 0.00388689)
(0.00928273 -0.0016197 3.97095e-06 0.00218145 8.46961e-08 0.00388321)
(0.00927803 -0.00161934 3.97887e-06 0.00218114 8.40393e-08 0.00387951)
(0.0092733 -0.00161898 3.9848e-06 0.00218084 8.3371e-08 0.00387581)
(0.00926853 -0.00161861 3.98976e-06 0.00218053 8.26955e-08 0.00387212)
(0.00926374 -0.00161825 3.99365e-06 0.00218022 8.20086e-08 0.00386842)