/*--------------------------------*- C++ -*----------------------------------*\
| =========                 |                                                 |
| \\      /  F ield         | OpenFOAM: The Open Source CFD Toolbox           |
|  \\    /   O peration     | Version:  v1806                                 |
|   \\  /    A nd           | Web:      www.OpenFOAM.com                      |
|    \\/     M anipulation  |                                                 |
\*---------------------------------------------------------------------------*/
FoamFile
{
    version     2.0;
    format      ascii;
    class       volVectorField;
    location    "10000";
    object      U_DNS;
}
// * * * * * * * * * * * * * * * * * * * * * * * * * * * * * * * * * * * * * //

dimensions      [0 1 -1 0 0 0 0];


internalField   nonuniform List<vector> 
1025
(
(0.00414462 0 -6.53393e-07)
(0.012453 0 -1.96328e-06)
(0.0207994 0 -3.27927e-06)
(0.0291836 0 -4.60131e-06)
(0.0376015 0 -5.92879e-06)
(0.0460578 0 -7.26235e-06)
(0.0545363 0 -8.59959e-06)
(0.0630534 0 -9.94292e-06)
(0.0715818 0 -1.12882e-05)
(0.080134 0 -1.26374e-05)
(0.0887266 0 -1.39929e-05)
(0.097278 0 -1.53423e-05)
(0.105865 0 -1.66975e-05)
(0.114466 0 -1.80548e-05)
(0.122998 0 -1.9402e-05)
(0.13157 0 -2.07555e-05)
(0.140107 0 -2.21038e-05)
(0.148564 0 -2.34405e-05)
(0.157062 0 -2.47834e-05)
(0.165467 0 -2.61126e-05)
(0.173787 0 -2.74294e-05)
(0.182146 0 -2.87523e-05)
(0.190356 0 -3.00533e-05)
(0.198476 0 -3.13411e-05)
(0.206634 0 -3.26349e-05)
(0.214601 0 -3.39006e-05)
(0.222461 0 -3.51509e-05)
(0.230359 0 -3.64071e-05)
(0.238047 0 -3.76326e-05)
(0.245599 0 -3.88382e-05)
(0.253187 0 -4.00497e-05)
(0.260576 0 -4.12321e-05)
(0.267779 0 -4.23876e-05)
(0.275017 0 -4.35486e-05)
(0.2821 0 -4.46871e-05)
(0.288927 0 -4.57884e-05)
(0.295785 0 -4.68947e-05)
(0.30256 0 -4.79892e-05)
(0.308994 0 -4.90339e-05)
(0.315458 0 -5.00834e-05)
(0.321933 0 -5.1135e-05)
(0.327966 0 -5.21219e-05)
(0.334028 0 -5.31135e-05)
(0.340118 0 -5.41098e-05)
(0.345848 0 -5.50532e-05)
(0.35151 0 -5.5987e-05)
(0.357198 0 -5.69253e-05)
(0.362663 0 -5.78306e-05)
(0.367934 0 -5.87077e-05)
(0.37323 0 -5.9589e-05)
(0.378447 0 -6.04588e-05)
(0.383342 0 -6.1281e-05)
(0.388261 0 -6.2107e-05)
(0.393203 0 -6.29369e-05)
(0.397784 0 -6.37127e-05)
(0.402344 0 -6.44858e-05)
(0.406926 0 -6.52626e-05)
(0.411313 0 -6.60098e-05)
(0.415536 0 -6.67323e-05)
(0.419779 0 -6.74582e-05)
(0.423983 0 -6.81785e-05)
(0.427893 0 -6.88531e-05)
(0.43182 0 -6.95308e-05)
(0.435766 0 -7.02117e-05)
(0.439471 0 -7.08548e-05)
(0.443106 0 -7.1487e-05)
(0.446758 0 -7.21222e-05)
(0.450325 0 -7.27439e-05)
(0.453691 0 -7.33333e-05)
(0.457073 0 -7.39254e-05)
(0.46047 0 -7.45204e-05)
(0.463627 0 -7.50758e-05)
(0.46676 0 -7.56275e-05)
(0.469908 0 -7.61819e-05)
(0.472962 0 -7.67205e-05)
(0.475867 0 -7.72345e-05)
(0.478787 0 -7.77508e-05)
(0.481721 0 -7.82697e-05)
(0.484439 0 -7.87518e-05)
(0.487151 0 -7.92328e-05)
(0.489875 0 -7.9716e-05)
(0.492516 0 -8.01847e-05)
(0.495037 0 -8.06328e-05)
(0.497571 0 -8.1083e-05)
(0.500116 0 -8.15353e-05)
(0.502483 0 -8.19561e-05)
(0.504844 0 -8.23757e-05)
(0.507215 0 -8.27972e-05)
(0.509522 0 -8.32074e-05)
(0.511725 0 -8.35988e-05)
(0.513938 0 -8.3992e-05)
(0.516161 0 -8.43871e-05)
(0.518244 0 -8.47569e-05)
(0.520313 0 -8.5124e-05)
(0.522391 0 -8.5493e-05)
(0.524428 0 -8.58543e-05)
(0.526366 0 -8.61975e-05)
(0.528313 0 -8.65424e-05)
(0.530269 0 -8.68888e-05)
(0.532121 0 -8.72161e-05)
(0.533949 0 -8.75388e-05)
(0.535785 0 -8.7863e-05)
(0.537599 0 -8.81833e-05)
(0.539318 0 -8.84857e-05)
(0.541046 0 -8.87896e-05)
(0.542781 0 -8.90949e-05)
(0.544442 0 -8.93863e-05)
(0.54607 0 -8.96717e-05)
(0.547705 0 -8.99583e-05)
(0.549336 0 -9.0244e-05)
(0.550874 0 -9.05127e-05)
(0.552419 0 -9.07825e-05)
(0.553971 0 -9.10537e-05)
(0.555473 0 -9.13158e-05)
(0.556936 0 -9.15707e-05)
(0.558405 0 -9.18268e-05)
(0.559882 0 -9.20841e-05)
(0.56127 0 -9.23257e-05)
(0.562665 0 -9.25683e-05)
(0.564065 0 -9.2812e-05)
(0.565435 0 -9.30502e-05)
(0.56676 0 -9.32804e-05)
(0.568092 0 -9.35118e-05)
(0.56943 0 -9.37442e-05)
(0.570704 0 -9.3965e-05)
(0.571974 0 -9.41848e-05)
(0.573249 0 -9.44057e-05)
(0.574507 0 -9.46233e-05)
(0.575719 0 -9.48323e-05)
(0.576936 0 -9.50422e-05)
(0.57816 0 -9.52531e-05)
(0.579337 0 -9.54547e-05)
(0.580502 0 -9.56538e-05)
(0.581673 0 -9.58539e-05)
(0.582837 0 -9.60521e-05)
(0.583954 0 -9.62401e-05)
(0.585077 0 -9.64291e-05)
(0.586206 0 -9.66189e-05)
(0.587301 0 -9.68003e-05)
(0.58838 0 -9.69775e-05)
(0.589465 0 -9.71556e-05)
(0.590548 0 -9.7333e-05)
(0.591588 0 -9.74983e-05)
(0.592632 0 -9.76643e-05)
(0.593682 0 -9.78312e-05)
(0.594707 0 -9.79907e-05)
(0.595715 0 -9.81448e-05)
(0.596728 0 -9.82998e-05)
(0.597743 0 -9.84548e-05)
(0.598718 0 -9.85979e-05)
(0.599697 0 -9.87416e-05)
(0.600681 0 -9.88861e-05)
(0.601646 0 -9.9025e-05)
(0.602595 0 -9.91589e-05)
(0.603549 0 -9.92935e-05)
(0.604506 0 -9.94286e-05)
(0.605427 0 -9.95542e-05)
(0.606352 0 -9.96803e-05)
(0.607282 0 -9.98071e-05)
(0.608196 0 -9.99297e-05)
(0.609096 0 -0.000100048)
(0.61 0 -0.000100168)
(0.610907 0 -0.000100288)
(0.611783 0 -0.000100399)
(0.612664 0 -0.000100512)
(0.613548 0 -0.000100625)
(0.614419 0 -0.000100734)
(0.615278 0 -0.00010084)
(0.61614 0 -0.000100947)
(0.617006 0 -0.000101053)
(0.617844 0 -0.000101153)
(0.618687 0 -0.000101253)
(0.619535 0 -0.000101353)
(0.620368 0 -0.000101449)
(0.621192 0 -0.000101542)
(0.622021 0 -0.000101636)
(0.62285 0 -0.000101728)
(0.623658 0 -0.000101813)
(0.624469 0 -0.000101898)
(0.625285 0 -0.000101983)
(0.626086 0 -0.000102062)
(0.626882 0 -0.000102138)
(0.627682 0 -0.000102214)
(0.628479 0 -0.000102288)
(0.629261 0 -0.000102354)
(0.630047 0 -0.000102421)
(0.630837 0 -0.000102487)
(0.63161 0 -0.000102545)
(0.632382 0 -0.000102602)
(0.633158 0 -0.000102658)
(0.633928 0 -0.000102711)
(0.634688 0 -0.000102759)
(0.635452 0 -0.000102806)
(0.636219 0 -0.000102854)
(0.636969 0 -0.000102893)
(0.637721 0 -0.000102933)
(0.638477 0 -0.000102974)
(0.639224 0 -0.00010301)
(0.639966 0 -0.000103043)
(0.640712 0 -0.000103077)
(0.641455 0 -0.000103109)
(0.642188 0 -0.000103138)
(0.642924 0 -0.000103166)
(0.643663 0 -0.000103194)
(0.644389 0 -0.000103217)
(0.645115 0 -0.00010324)
(0.645846 0 -0.000103263)
(0.646569 0 -0.000103283)
(0.647288 0 -0.000103301)
(0.64801 0 -0.000103319)
(0.648731 0 -0.000103336)
(0.649442 0 -0.00010335)
(0.650156 0 -0.000103364)
(0.650874 0 -0.000103378)
(0.651579 0 -0.00010339)
(0.652286 0 -0.000103401)
(0.652996 0 -0.000103413)
(0.653699 0 -0.000103423)
(0.6544 0 -0.000103433)
(0.655103 0 -0.000103443)
(0.655805 0 -0.000103452)
(0.656499 0 -0.000103461)
(0.657196 0 -0.00010347)
(0.657895 0 -0.000103479)
(0.658583 0 -0.000103488)
(0.659275 0 -0.000103498)
(0.659969 0 -0.000103508)
(0.660655 0 -0.00010352)
(0.661341 0 -0.000103533)
(0.66203 0 -0.000103546)
(0.662714 0 -0.000103562)
(0.663394 0 -0.000103582)
(0.664078 0 -0.000103601)
(0.664761 0 -0.000103623)
(0.665436 0 -0.000103649)
(0.666115 0 -0.000103676)
(0.666795 0 -0.000103704)
(0.667467 0 -0.000103738)
(0.668141 0 -0.000103773)
(0.668819 0 -0.000103807)
(0.669487 0 -0.000103846)
(0.670157 0 -0.000103886)
(0.67083 0 -0.000103927)
(0.671497 0 -0.00010397)
(0.672163 0 -0.000104014)
(0.672832 0 -0.000104059)
(0.673497 0 -0.000104105)
(0.67416 0 -0.000104153)
(0.674825 0 -0.0001042)
(0.675489 0 -0.000104249)
(0.676147 0 -0.000104299)
(0.676809 0 -0.00010435)
(0.677471 0 -0.000104401)
(0.678126 0 -0.000104454)
(0.678785 0 -0.000104508)
(0.679445 0 -0.000104562)
(0.680098 0 -0.00010462)
(0.680753 0 -0.000104678)
(0.681411 0 -0.000104737)
(0.68206 0 -0.0001048)
(0.682713 0 -0.000104864)
(0.683368 0 -0.000104929)
(0.684016 0 -0.000104999)
(0.684666 0 -0.00010507)
(0.685318 0 -0.000105141)
(0.685964 0 -0.000105217)
(0.686611 0 -0.000105295)
(0.687261 0 -0.000105373)
(0.687905 0 -0.000105455)
(0.68855 0 -0.00010554)
(0.689198 0 -0.000105624)
(0.68984 0 -0.000105713)
(0.690482 0 -0.000105803)
(0.691127 0 -0.000105893)
(0.691768 0 -0.000105987)
(0.692408 0 -0.000106082)
(0.693051 0 -0.000106177)
(0.69369 0 -0.000106274)
(0.694328 0 -0.000106372)
(0.694969 0 -0.00010647)
(0.695606 0 -0.00010657)
(0.696242 0 -0.000106672)
(0.696881 0 -0.000106773)
(0.697516 0 -0.000106877)
(0.69815 0 -0.000106982)
(0.698787 0 -0.000107088)
(0.69942 0 -0.000107196)
(0.700053 0 -0.000107306)
(0.700689 0 -0.000107416)
(0.701319 0 -0.00010753)
(0.701951 0 -0.000107645)
(0.702585 0 -0.00010776)
(0.703213 0 -0.000107881)
(0.703843 0 -0.000108002)
(0.704476 0 -0.000108125)
(0.705102 0 -0.000108253)
(0.705731 0 -0.000108382)
(0.706362 0 -0.000108512)
(0.706986 0 -0.000108647)
(0.707613 0 -0.000108782)
(0.708243 0 -0.000108919)
(0.708865 0 -0.000109058)
(0.709491 0 -0.000109199)
(0.710118 0 -0.00010934)
(0.71074 0 -0.000109482)
(0.711365 0 -0.000109625)
(0.71199 0 -0.000109769)
(0.71261 0 -0.000109913)
(0.713234 0 -0.000110057)
(0.713856 0 -0.000110202)
(0.714476 0 -0.000110346)
(0.715099 0 -0.000110491)
(0.715719 0 -0.000110635)
(0.716338 0 -0.000110779)
(0.71696 0 -0.000110924)
(0.717577 0 -0.000111067)
(0.718195 0 -0.00011121)
(0.718816 0 -0.000111354)
(0.719431 0 -0.000111495)
(0.720049 0 -0.000111637)
(0.720668 0 -0.000111779)
(0.721282 0 -0.000111919)
(0.721899 0 -0.00011206)
(0.722515 0 -0.000112201)
(0.723128 0 -0.00011234)
(0.723744 0 -0.000112481)
(0.724358 0 -0.000112619)
(0.724971 0 -0.000112757)
(0.725587 0 -0.000112896)
(0.726198 0 -0.00011303)
(0.72681 0 -0.000113164)
(0.727424 0 -0.000113297)
(0.728034 0 -0.000113423)
(0.728646 0 -0.00011355)
(0.729257 0 -0.000113673)
(0.729866 0 -0.00011379)
(0.730478 0 -0.000113907)
(0.731086 0 -0.000114019)
(0.731695 0 -0.000114128)
(0.732307 0 -0.000114237)
(0.732912 0 -0.000114338)
(0.733521 0 -0.00011444)
(0.73413 0 -0.000114539)
(0.734735 0 -0.000114634)
(0.735343 0 -0.000114728)
(0.735949 0 -0.000114819)
(0.736555 0 -0.000114907)
(0.737163 0 -0.000114995)
(0.737766 0 -0.000115077)
(0.738371 0 -0.00011516)
(0.738977 0 -0.000115241)
(0.739579 0 -0.00011532)
(0.740185 0 -0.000115399)
(0.740787 0 -0.000115474)
(0.74139 0 -0.000115549)
(0.741995 0 -0.000115624)
(0.742595 0 -0.000115693)
(0.743198 0 -0.000115763)
(0.7438 0 -0.00011583)
(0.7444 0 -0.000115893)
(0.745003 0 -0.000115956)
(0.745601 0 -0.000116014)
(0.746202 0 -0.00011607)
(0.746803 0 -0.000116125)
(0.747401 0 -0.000116177)
(0.748001 0 -0.000116229)
(0.748599 0 -0.000116279)
(0.749197 0 -0.000116328)
(0.749797 0 -0.000116377)
(0.750393 0 -0.000116423)
(0.750991 0 -0.000116469)
(0.751587 0 -0.000116512)
(0.752184 0 -0.000116552)
(0.752782 0 -0.000116591)
(0.753376 0 -0.000116623)
(0.753973 0 -0.000116654)
(0.754567 0 -0.000116678)
(0.755162 0 -0.000116696)
(0.755758 0 -0.000116714)
(0.75635 0 -0.000116717)
(0.756945 0 -0.000116721)
(0.757538 0 -0.000116713)
(0.758131 0 -0.000116698)
(0.758726 0 -0.00011668)
(0.759317 0 -0.000116644)
(0.75991 0 -0.000116607)
(0.760501 0 -0.000116555)
(0.761093 0 -0.000116495)
(0.761685 0 -0.000116429)
(0.762275 0 -0.000116345)
(0.762867 0 -0.00011626)
(0.763456 0 -0.000116156)
(0.764046 0 -0.000116046)
(0.764636 0 -0.000115927)
(0.765225 0 -0.00011579)
(0.765816 0 -0.000115654)
(0.766402 0 -0.000115493)
(0.766991 0 -0.00011533)
(0.767579 0 -0.000115153)
(0.768166 0 -0.000114965)
(0.768756 0 -0.000114772)
(0.769341 0 -0.000114559)
(0.769929 0 -0.000114345)
(0.770514 0 -0.000114112)
(0.771101 0 -0.000113871)
(0.771687 0 -0.00011362)
(0.772272 0 -0.000113352)
(0.772859 0 -0.000113082)
(0.773442 0 -0.000112782)
(0.774028 0 -0.000112481)
(0.774611 0 -0.000112157)
(0.775195 0 -0.000111823)
(0.77578 0 -0.000111476)
(0.776362 0 -0.000111107)
(0.776947 0 -0.000110736)
(0.777528 0 -0.000110334)
(0.778112 0 -0.00010993)
(0.778694 0 -0.000109507)
(0.779276 0 -0.000109074)
(0.779858 0 -0.000108633)
(0.780438 0 -0.000108178)
(0.781021 0 -0.000107721)
(0.7816 0 -0.00010725)
(0.782182 0 -0.000106777)
(0.782761 0 -0.000106295)
(0.783342 0 -0.00010581)
(0.783921 0 -0.000105318)
(0.784501 0 -0.000104822)
(0.785081 0 -0.000104322)
(0.785659 0 -0.000103818)
(0.786239 0 -0.000103313)
(0.786815 0 -0.000102809)
(0.787395 0 -0.000102302)
(0.787971 0 -0.0001018)
(0.788549 0 -0.000101297)
(0.789126 0 -0.000100799)
(0.789703 0 -0.000100303)
(0.79028 0 -9.98084e-05)
(0.790855 0 -9.93184e-05)
(0.791433 0 -9.88274e-05)
(0.792007 0 -9.83408e-05)
(0.792584 0 -9.78518e-05)
(0.793158 0 -9.73658e-05)
(0.793734 0 -9.68777e-05)
(0.794308 0 -9.63898e-05)
(0.794882 0 -9.59004e-05)
(0.795456 0 -9.54106e-05)
(0.79603 0 -9.49195e-05)
(0.796604 0 -9.44286e-05)
(0.797176 0 -9.39385e-05)
(0.79775 0 -9.34489e-05)
(0.798322 0 -9.29635e-05)
(0.798896 0 -9.24775e-05)
(0.799467 0 -9.19985e-05)
(0.80004 0 -9.15173e-05)
(0.80061 0 -9.1042e-05)
(0.801183 0 -9.05646e-05)
(0.801753 0 -9.00884e-05)
(0.802325 0 -8.96103e-05)
(0.802894 0 -8.91305e-05)
(0.803465 0 -8.86487e-05)
(0.804035 0 -8.81625e-05)
(0.804605 0 -8.76731e-05)
(0.805174 0 -8.71769e-05)
(0.805744 0 -8.66751e-05)
(0.806313 0 -8.61655e-05)
(0.806882 0 -8.56478e-05)
(0.80745 0 -8.51228e-05)
(0.808018 0 -8.45885e-05)
(0.808587 0 -8.40485e-05)
(0.809154 0 -8.35002e-05)
(0.809722 0 -8.29475e-05)
(0.810289 0 -8.2388e-05)
(0.810857 0 -8.1825e-05)
(0.811423 0 -8.12564e-05)
(0.81199 0 -8.06848e-05)
(0.812555 0 -8.01088e-05)
(0.813122 0 -7.95296e-05)
(0.813687 0 -7.89456e-05)
(0.814254 0 -7.83583e-05)
(0.814818 0 -7.77646e-05)
(0.815384 0 -7.71673e-05)
(0.815948 0 -7.65624e-05)
(0.816513 0 -7.59534e-05)
(0.817076 0 -7.53345e-05)
(0.817642 0 -7.47109e-05)
(0.818204 0 -7.40738e-05)
(0.818769 0 -7.34311e-05)
(0.819331 0 -7.27717e-05)
(0.819895 0 -7.21057e-05)
(0.820457 0 -7.14213e-05)
(0.82102 0 -7.07296e-05)
(0.821581 0 -7.00191e-05)
(0.822144 0 -6.93006e-05)
(0.822705 0 -6.8565e-05)
(0.823267 0 -6.78208e-05)
(0.823828 0 -6.70615e-05)
(0.824389 0 -6.62932e-05)
(0.824949 0 -6.55115e-05)
(0.82551 0 -6.472e-05)
(0.82607 0 -6.39165e-05)
(0.82663 0 -6.31013e-05)
(0.82719 0 -6.22741e-05)
(0.827749 0 -6.14322e-05)
(0.828309 0 -6.05786e-05)
(0.828867 0 -5.97088e-05)
(0.829427 0 -5.8829e-05)
(0.829985 0 -5.79328e-05)
(0.830544 0 -5.70289e-05)
(0.831101 0 -5.611e-05)
(0.83166 0 -5.51852e-05)
(0.832216 0 -5.42511e-05)
(0.832775 0 -5.33128e-05)
(0.833331 0 -5.23718e-05)
(0.833888 0 -5.14284e-05)
(0.834445 0 -5.04866e-05)
(0.835001 0 -4.95458e-05)
(0.835557 0 -4.86096e-05)
(0.836113 0 -4.76792e-05)
(0.836669 0 -4.67533e-05)
(0.837225 0 -4.58366e-05)
(0.837781 0 -4.49218e-05)
(0.838335 0 -4.40143e-05)
(0.838891 0 -4.31049e-05)
(0.839444 0 -4.21996e-05)
(0.839999 0 -4.12911e-05)
(0.840553 0 -4.03836e-05)
(0.841107 0 -3.94738e-05)
(0.841661 0 -3.85631e-05)
(0.842214 0 -3.76511e-05)
(0.842768 0 -3.67371e-05)
(0.843321 0 -3.58224e-05)
(0.843875 0 -3.49044e-05)
(0.844426 0 -3.39826e-05)
(0.84498 0 -3.30555e-05)
(0.845532 0 -3.21201e-05)
(0.846084 0 -3.11785e-05)
(0.846636 0 -3.02294e-05)
(0.847187 0 -2.92779e-05)
(0.84774 0 -2.83231e-05)
(0.84829 0 -2.73728e-05)
(0.848842 0 -2.64205e-05)
(0.849393 0 -2.54734e-05)
(0.849944 0 -2.45247e-05)
(0.850494 0 -2.35761e-05)
(0.851044 0 -2.26264e-05)
(0.851595 0 -2.16744e-05)
(0.852144 0 -2.0723e-05)
(0.852695 0 -1.97691e-05)
(0.853244 0 -1.88179e-05)
(0.853793 0 -1.78669e-05)
(0.854343 0 -1.69177e-05)
(0.854891 0 -1.59717e-05)
(0.855441 0 -1.50241e-05)
(0.855989 0 -1.408e-05)
(0.856538 0 -1.31339e-05)
(0.857086 0 -1.21894e-05)
(0.857633 0 -1.12442e-05)
(0.858182 0 -1.02961e-05)
(0.858729 0 -9.34296e-06)
(0.859277 0 -8.38378e-06)
(0.859824 0 -7.41301e-06)
(0.860371 0 -6.427e-06)
(0.860919 0 -5.42923e-06)
(0.861465 0 -4.40957e-06)
(0.862012 0 -3.37954e-06)
(0.862558 0 -2.33376e-06)
(0.863104 0 -1.2776e-06)
(0.863651 0 -2.12483e-07)
(0.864196 0 8.54445e-07)
(0.864742 0 1.92359e-06)
(0.865287 0 2.99273e-06)
(0.865833 0 4.05726e-06)
(0.866379 0 5.12038e-06)
(0.866923 0 6.16312e-06)
(0.867468 0 7.19719e-06)
(0.868013 0 8.21674e-06)
(0.868557 0 9.21439e-06)
(0.869102 0 1.02031e-05)
(0.869646 0 1.11647e-05)
(0.870189 0 1.21046e-05)
(0.870734 0 1.30304e-05)
(0.871277 0 1.39172e-05)
(0.871821 0 1.47921e-05)
(0.872364 0 1.5647e-05)
(0.872907 0 1.64809e-05)
(0.87345 0 1.73061e-05)
(0.873993 0 1.81121e-05)
(0.874536 0 1.89005e-05)
(0.875079 0 1.96774e-05)
(0.875621 0 2.04214e-05)
(0.876163 0 2.11512e-05)
(0.876706 0 2.18663e-05)
(0.877247 0 2.25513e-05)
(0.877789 0 2.32248e-05)
(0.878331 0 2.38813e-05)
(0.878872 0 2.45119e-05)
(0.879414 0 2.51293e-05)
(0.879955 0 2.5724e-05)
(0.880495 0 2.62963e-05)
(0.881037 0 2.68562e-05)
(0.881578 0 2.73937e-05)
(0.882118 0 2.79055e-05)
(0.882659 0 2.84001e-05)
(0.883199 0 2.88632e-05)
(0.88374 0 2.93009e-05)
(0.88428 0 2.97216e-05)
(0.88482 0 3.0116e-05)
(0.88536 0 3.04978e-05)
(0.8859 0 3.08718e-05)
(0.88644 0 3.12361e-05)
(0.88698 0 3.15905e-05)
(0.88752 0 3.1937e-05)
(0.888059 0 3.22689e-05)
(0.888598 0 3.25872e-05)
(0.889138 0 3.28978e-05)
(0.889677 0 3.31998e-05)
(0.890216 0 3.35012e-05)
(0.890755 0 3.38069e-05)
(0.891294 0 3.4122e-05)
(0.891833 0 3.44587e-05)
(0.892372 0 3.48117e-05)
(0.89291 0 3.51832e-05)
(0.893448 0 3.55877e-05)
(0.893987 0 3.60155e-05)
(0.894525 0 3.64672e-05)
(0.895063 0 3.69614e-05)
(0.895601 0 3.74845e-05)
(0.896139 0 3.80325e-05)
(0.896676 0 3.86122e-05)
(0.897214 0 3.92197e-05)
(0.897752 0 3.98478e-05)
(0.89829 0 4.04975e-05)
(0.898826 0 4.11767e-05)
(0.899364 0 4.18741e-05)
(0.899901 0 4.25881e-05)
(0.900438 0 4.3318e-05)
(0.900975 0 4.4051e-05)
(0.901512 0 4.47832e-05)
(0.90205 0 4.55107e-05)
(0.902586 0 4.62263e-05)
(0.903123 0 4.69346e-05)
(0.90366 0 4.76352e-05)
(0.904196 0 4.83242e-05)
(0.904733 0 4.90023e-05)
(0.90527 0 4.96693e-05)
(0.905807 0 5.03224e-05)
(0.906343 0 5.09449e-05)
(0.906879 0 5.15386e-05)
(0.907416 0 5.21031e-05)
(0.907952 0 5.26359e-05)
(0.908488 0 5.31258e-05)
(0.909024 0 5.35928e-05)
(0.909561 0 5.40354e-05)
(0.910097 0 5.44495e-05)
(0.910633 0 5.48145e-05)
(0.911169 0 5.51435e-05)
(0.911706 0 5.54396e-05)
(0.912243 0 5.57053e-05)
(0.912778 0 5.5946e-05)
(0.913314 0 5.61776e-05)
(0.913851 0 5.64035e-05)
(0.914387 0 5.66269e-05)
(0.914923 0 5.68552e-05)
(0.915459 0 5.70921e-05)
(0.915996 0 5.7338e-05)
(0.916532 0 5.75927e-05)
(0.917069 0 5.78562e-05)
(0.917605 0 5.81192e-05)
(0.918141 0 5.83774e-05)
(0.918678 0 5.86274e-05)
(0.919214 0 5.8864e-05)
(0.91975 0 5.90808e-05)
(0.920287 0 5.92902e-05)
(0.920823 0 5.94997e-05)
(0.92136 0 5.97163e-05)
(0.921897 0 5.99508e-05)
(0.922433 0 6.02115e-05)
(0.92297 0 6.05029e-05)
(0.923507 0 6.083e-05)
(0.924043 0 6.11973e-05)
(0.92458 0 6.16144e-05)
(0.925117 0 6.20597e-05)
(0.925654 0 6.25178e-05)
(0.926191 0 6.29773e-05)
(0.926728 0 6.3428e-05)
(0.927265 0 6.38614e-05)
(0.927801 0 6.42899e-05)
(0.928338 0 6.47271e-05)
(0.928876 0 6.51823e-05)
(0.929413 0 6.56605e-05)
(0.929951 0 6.61633e-05)
(0.930488 0 6.66834e-05)
(0.931025 0 6.72088e-05)
(0.931563 0 6.7736e-05)
(0.932101 0 6.82663e-05)
(0.932639 0 6.88049e-05)
(0.933177 0 6.93629e-05)
(0.933715 0 6.99379e-05)
(0.934253 0 7.05244e-05)
(0.934791 0 7.11205e-05)
(0.93533 0 7.17262e-05)
(0.935869 0 7.23438e-05)
(0.936408 0 7.2978e-05)
(0.936946 0 7.36266e-05)
(0.937485 0 7.42821e-05)
(0.938024 0 7.49412e-05)
(0.938563 0 7.56018e-05)
(0.939103 0 7.62638e-05)
(0.939642 0 7.69316e-05)
(0.940182 0 7.76193e-05)
(0.940721 0 7.83275e-05)
(0.941261 0 7.90492e-05)
(0.941801 0 7.97837e-05)
(0.942341 0 8.05372e-05)
(0.942882 0 8.13203e-05)
(0.943422 0 8.21435e-05)
(0.943963 0 8.30121e-05)
(0.944504 0 8.39251e-05)
(0.945044 0 8.48657e-05)
(0.945585 0 8.58161e-05)
(0.946127 0 8.67604e-05)
(0.946668 0 8.76905e-05)
(0.94721 0 8.86079e-05)
(0.947752 0 8.95211e-05)
(0.948294 0 9.04378e-05)
(0.948836 0 9.13673e-05)
(0.949378 0 9.23203e-05)
(0.94992 0 9.32928e-05)
(0.950463 0 9.42773e-05)
(0.951006 0 9.52655e-05)
(0.951549 0 9.62462e-05)
(0.952093 0 9.72078e-05)
(0.952636 0 9.81453e-05)
(0.95318 0 9.90709e-05)
(0.953724 0 0.000100017)
(0.954269 0 0.000101028)
(0.954813 0 0.00010215)
(0.955358 0 0.000103414)
(0.955903 0 0.000104814)
(0.956448 0 0.000106315)
(0.956993 0 0.000107883)
(0.957538 0 0.000109486)
(0.958084 0 0.00011109)
(0.958629 0 0.000112662)
(0.959175 0 0.000114171)
(0.959721 0 0.00011559)
(0.960267 0 0.00011689)
(0.960813 0 0.000118044)
(0.96136 0 0.000119031)
(0.961907 0 0.000119849)
(0.962454 0 0.000120509)
(0.963001 0 0.000121018)
(0.963549 0 0.000121394)
(0.964096 0 0.000121665)
(0.964645 0 0.000121868)
(0.965193 0 0.000122034)
(0.965741 0 0.000122178)
(0.96629 0 0.000122303)
(0.966839 0 0.000122406)
(0.967388 0 0.000122492)
(0.967937 0 0.000122565)
(0.968487 0 0.000122619)
(0.969037 0 0.00012265)
(0.969587 0 0.000122648)
(0.970138 0 0.000122599)
(0.970689 0 0.000122488)
(0.97124 0 0.000122303)
(0.971792 0 0.00012203)
(0.972345 0 0.000121651)
(0.972897 0 0.000121165)
(0.97345 0 0.000120589)
(0.974004 0 0.000119945)
(0.974558 0 0.000119248)
(0.975112 0 0.000118509)
(0.975667 0 0.000117726)
(0.976222 0 0.000116898)
(0.976778 0 0.000116041)
(0.977334 0 0.000115175)
(0.97789 0 0.00011433)
(0.978446 0 0.000113545)
(0.979003 0 0.00011285)
(0.979561 0 0.000112246)
(0.980119 0 0.000111711)
(0.980677 0 0.000111219)
(0.981235 0 0.000110735)
(0.981793 0 0.000110219)
(0.982352 0 0.000109626)
(0.982911 0 0.000108942)
(0.98347 0 0.000108163)
(0.98403 0 0.000107286)
(0.98459 0 0.000106314)
(0.985149 0 0.00010527)
(0.98571 0 0.00010418)
(0.98627 0 0.000103073)
(0.98683 0 0.000101954)
(0.987391 0 0.000100805)
(0.987952 0 9.96203e-05)
(0.988513 0 9.84118e-05)
(0.989074 0 9.7182e-05)
(0.989636 0 9.59236e-05)
(0.990197 0 9.46483e-05)
(0.990759 0 9.33737e-05)
(0.991322 0 9.21193e-05)
(0.991884 0 9.09179e-05)
(0.992447 0 8.97976e-05)
(0.99301 0 8.87647e-05)
(0.993573 0 8.78232e-05)
(0.994136 0 8.69627e-05)
(0.9947 0 8.61504e-05)
(0.995264 0 8.53182e-05)
(0.995828 0 8.43975e-05)
(0.996393 0 8.33388e-05)
(0.996958 0 8.21367e-05)
(0.997524 0 8.08299e-05)
(0.998089 0 7.94776e-05)
(0.998656 0 7.81298e-05)
(0.999223 0 7.68301e-05)
(0.99979 0 7.56284e-05)
(1.00036 0 7.4572e-05)
(1.00092 0 7.36724e-05)
(1.00149 0 7.29127e-05)
(1.00206 0 7.22352e-05)
(1.00263 0 7.16041e-05)
(1.0032 0 7.10224e-05)
(1.00377 0 7.04692e-05)
(1.00434 0 6.98951e-05)
(1.00491 0 6.92573e-05)
(1.00548 0 6.85701e-05)
(1.00605 0 6.78913e-05)
(1.00662 0 6.7258e-05)
(1.0072 0 6.66845e-05)
(1.00777 0 6.61875e-05)
(1.00834 0 6.57606e-05)
(1.00892 0 6.53764e-05)
(1.00949 0 6.50531e-05)
(1.01006 0 6.4844e-05)
(1.01064 0 6.48207e-05)
(1.01121 0 6.49714e-05)
(1.01179 0 6.52268e-05)
(1.01237 0 6.55185e-05)
(1.01294 0 6.5783e-05)
(1.01352 0 6.5987e-05)
(1.0141 0 6.61322e-05)
(1.01468 0 6.62423e-05)
(1.01525 0 6.63521e-05)
(1.01583 0 6.6469e-05)
(1.01641 0 6.65737e-05)
(1.01699 0 6.6636e-05)
(1.01757 0 6.66525e-05)
(1.01815 0 6.66821e-05)
(1.01873 0 6.67943e-05)
(1.01931 0 6.70258e-05)
(1.01989 0 6.73972e-05)
(1.02047 0 6.79289e-05)
(1.02106 0 6.86205e-05)
(1.02164 0 6.9462e-05)
(1.02222 0 7.04282e-05)
(1.02281 0 7.1464e-05)
(1.02339 0 7.25107e-05)
(1.02398 0 7.35046e-05)
(1.02456 0 7.4402e-05)
(1.02515 0 7.52104e-05)
(1.02573 0 7.59091e-05)
(1.02632 0 7.64113e-05)
(1.02691 0 7.67166e-05)
(1.02749 0 7.69179e-05)
(1.02808 0 7.71463e-05)
(1.02867 0 7.74635e-05)
(1.02926 0 7.78974e-05)
(1.02984 0 7.84792e-05)
(1.03043 0 7.91305e-05)
(1.03102 0 7.98033e-05)
(1.03161 0 8.04698e-05)
(1.0322 0 8.11307e-05)
(1.03279 0 8.1813e-05)
(1.03338 0 8.25038e-05)
(1.03397 0 8.31337e-05)
(1.03455 0 8.36858e-05)
(1.03514 0 8.42224e-05)
(1.03573 0 8.47923e-05)
(1.03632 0 8.54082e-05)
(1.03691 0 8.6034e-05)
(1.0375 0 8.66274e-05)
(1.03809 0 8.71741e-05)
(1.03868 0 8.77057e-05)
(1.03927 0 8.82659e-05)
(1.03986 0 8.88131e-05)
(1.04045 0 8.92762e-05)
(1.04105 0 8.96758e-05)
(1.04164 0 9.00994e-05)
(1.04223 0 9.06285e-05)
(1.04282 0 9.12708e-05)
(1.04342 0 9.19674e-05)
(1.04401 0 9.2589e-05)
(1.0446 0 9.30952e-05)
(1.04519 0 9.36139e-05)
(1.04579 0 9.41935e-05)
(1.04638 0 9.47905e-05)
(1.04697 0 9.53866e-05)
(1.04757 0 9.59422e-05)
(1.04816 0 9.64206e-05)
(1.04875 0 9.68257e-05)
(1.04935 0 9.71887e-05)
(1.04994 0 9.74556e-05)
(1.05054 0 9.75487e-05)
(1.05113 0 9.73727e-05)
(1.05172 0 9.70122e-05)
(1.05232 0 9.66394e-05)
(1.05291 0 9.6391e-05)
(1.05351 0 9.62647e-05)
(1.0541 0 9.62806e-05)
(1.05469 0 9.65723e-05)
(1.05529 0 9.71284e-05)
(1.05588 0 9.78476e-05)
(1.05647 0 9.86977e-05)
(1.05707 0 9.96667e-05)
(1.05766 0 0.00010075)
(1.05825 0 0.000101986)
(1.05884 0 0.000103422)
(1.05944 0 0.000105017)
(1.06003 0 0.000106705)
(1.06062 0 0.000108358)
(1.06121 0 0.0001099)
(1.06179 0 0.000111284)
(1.06238 0 0.000112549)
(1.06297 0 0.000113717)
(1.06355 0 0.00011475)
(1.06414 0 0.000115631)
(1.06472 0 0.000116355)
(1.06531 0 0.000116945)
(1.06589 0 0.000117323)
(1.06647 0 0.000117309)
(1.06705 0 0.000116893)
(1.06762 0 0.000116138)
(1.0682 0 0.000115155)
(1.06877 0 0.00011406)
(1.06935 0 0.000112938)
(1.06992 0 0.000111927)
(1.07049 0 0.000111091)
(1.07106 0 0.000110404)
(1.07163 0 0.000109706)
(1.07219 0 0.000108845)
(1.07276 0 0.000107743)
(1.07332 0 0.000106347)
(1.07388 0 0.00010472)
(1.07443 0 0.000102919)
(1.07499 0 0.000100937)
(1.07554 0 9.89437e-05)
(1.07609 0 9.71615e-05)
(1.07664 0 9.57055e-05)
(1.07719 0 9.4581e-05)
(1.07773 0 9.36123e-05)
(1.07827 0 9.26707e-05)
(1.07881 0 9.17058e-05)
(1.07934 0 9.06802e-05)
(1.07987 0 8.95645e-05)
(1.0804 0 8.82483e-05)
(1.08093 0 8.67099e-05)
(1.08145 0 8.49822e-05)
(1.08197 0 8.31758e-05)
(1.08249 0 8.14273e-05)
(1.083 0 7.97461e-05)
(1.08351 0 7.80943e-05)
(1.08402 0 7.63818e-05)
(1.08452 0 7.44311e-05)
(1.08502 0 7.20794e-05)
(1.08551 0 6.92814e-05)
(1.08601 0 6.60562e-05)
(1.08649 0 6.23922e-05)
(1.08698 0 5.83488e-05)
(1.08746 0 5.3983e-05)
(1.08793 0 4.92534e-05)
(1.0884 0 4.41988e-05)
(1.08887 0 3.89148e-05)
(1.08933 0 3.35014e-05)
(1.08978 0 2.79592e-05)
(1.09023 0 2.24139e-05)
(1.09068 0 1.69966e-05)
(1.09111 0 1.16309e-05)
(1.09155 0 6.21484e-06)
(1.09198 0 7.17496e-07)
(1.0924 0 -4.80506e-06)
(1.09281 0 -1.024e-05)
(1.09322 0 -1.55293e-05)
(1.09363 0 -2.07906e-05)
(1.09402 0 -2.61868e-05)
(1.09441 0 -3.18972e-05)
(1.0948 0 -3.81074e-05)
(1.09518 0 -4.47336e-05)
(1.09555 0 -5.15676e-05)
(1.09591 0 -5.86333e-05)
(1.09626 0 -6.60363e-05)
(1.09661 0 -7.39103e-05)
(1.09695 0 -8.24579e-05)
(1.09728 0 -9.15617e-05)
(1.0976 0 -0.000100953)
(1.09792 0 -0.000110505)
(1.09823 0 -0.000120151)
(1.09852 0 -0.000129905)
(1.09881 0 -0.000139665)
(1.09909 0 -0.000149168)
(1.09936 0 -0.000158096)
(1.09962 0 -0.000166483)
(1.09987 0 -0.000174659)
(1.10011 0 -0.000182807)
(1.10035 0 -0.000190977)
(1.10057 0 -0.00019891)
(1.10078 0 -0.000206344)
(1.10098 0 -0.000213249)
(1.10117 0 -0.000219793)
(1.10134 0 -0.000226215)
(1.10151 0 -0.000232496)
(1.10166 0 -0.000238427)
(1.1018 0 -0.000243903)
(1.10193 0 -0.000248851)
(1.10205 0 -0.000253298)
(1.10215 0 -0.000257382)
(1.10225 0 -0.000261149)
(1.10233 0 -0.000264509)
(1.1024 0 -0.000267334)
(1.10245 0 -0.000269434)
(1.10249 0 -0.000270828)
(1.10252 0 -0.000271866)
(1.10253 0 -0.000272537)
)
;

boundaryField
{
    INLET
    {
        type            cyclic;
    }
    OUTLET
    {
        type            cyclic;
    }
    CENTER
    {
        type            symmetryPlane;
    }
    WALL
    {
        type            noSlip;
    }
    frontAndBackPlanes
    {
        type            empty;
    }
}


// ************************************************************************* //
