/*--------------------------------*- C++ -*----------------------------------*\
| =========                 |                                                 |
| \\      /  F ield         | OpenFOAM: The Open Source CFD Toolbox           |
|  \\    /   O peration     | Version:  v1806                                 |
|   \\  /    A nd           | Web:      www.OpenFOAM.com                      |
|    \\/     M anipulation  |                                                 |
\*---------------------------------------------------------------------------*/
FoamFile
{
    version     2.0;
    format      ascii;
    class       volVectorField;
    location    "10000";
    object      divRS_DNS;
}
// * * * * * * * * * * * * * * * * * * * * * * * * * * * * * * * * * * * * * //

dimensions      [0 1 -2 0 0 0 0];


internalField   nonuniform List<vector> 
1025
(
(-1.58057e-06 -1.72218e-06 -2.01836e-09)
(-8.04283e-06 8.33642e-08 -1.02213e-08)
(-1.52821e-05 1.79093e-07 -1.9397e-08)
(-3.2978e-05 6.04702e-07 -4.15875e-08)
(-5.64446e-05 1.20247e-06 -7.09726e-08)
(-6.43077e-05 1.40278e-06 -8.08186e-08)
(-9.69843e-05 2.78704e-06 -1.20987e-07)
(-0.000159779 5.44718e-06 -1.98181e-07)
(-0.000189896 6.72307e-06 -2.35205e-07)
(-0.000189896 6.72305e-06 -2.35205e-07)
(-0.000200299 7.38509e-06 -2.47656e-07)
(-0.000344712 1.65767e-05 -4.20525e-07)
(-0.000478725 2.51063e-05 -5.80942e-07)
(-0.000478726 2.51063e-05 -5.80942e-07)
(-0.000478721 2.51063e-05 -5.80942e-07)
(-0.000478719 2.51064e-05 -5.80944e-07)
(-0.000526993 2.93455e-05 -6.36677e-07)
(-0.00082121 5.51906e-05 -9.76472e-07)
(-0.00106716 7.67959e-05 -1.26053e-06)
(-0.00106718 7.67957e-05 -1.26054e-06)
(-0.00106718 7.67956e-05 -1.26054e-06)
(-0.00106718 7.67955e-05 -1.26052e-06)
(-0.00106717 7.67956e-05 -1.26053e-06)
(-0.00106717 7.6795e-05 -1.26054e-06)
(-0.00149906 0.000125476 -1.73728e-06)
(-0.00203772 0.000186191 -2.33185e-06)
(-0.00214449 0.000198225 -2.44971e-06)
(-0.00214449 0.000198226 -2.44972e-06)
(-0.00214447 0.000198226 -2.44975e-06)
(-0.00214453 0.000198225 -2.44973e-06)
(-0.0021445 0.000198225 -2.44964e-06)
(-0.0021444 0.000198226 -2.44968e-06)
(-0.00226792 0.000215026 -2.57889e-06)
(-0.00317033 0.000337811 -3.52321e-06)
(-0.00394923 0.000443794 -4.33827e-06)
(-0.00394924 0.000443801 -4.33814e-06)
(-0.00394926 0.000443805 -4.33821e-06)
(-0.00394928 0.000443794 -4.33824e-06)
(-0.00394919 0.000443793 -4.33816e-06)
(-0.00394921 0.000443806 -4.33821e-06)
(-0.00394924 0.000443805 -4.33824e-06)
(-0.00394915 0.000443802 -4.33815e-06)
(-0.0044174 0.000517024 -4.79979e-06)
(-0.00582369 0.000736996 -6.18639e-06)
(-0.00676173 0.000883751 -7.1113e-06)
(-0.0067617 0.000883744 -7.1113e-06)
(-0.00676171 0.000883741 -7.11135e-06)
(-0.00676172 0.000883749 -7.11131e-06)
(-0.00676176 0.000883758 -7.11135e-06)
(-0.00676175 0.000883753 -7.11134e-06)
(-0.00676179 0.000883741 -7.11128e-06)
(-0.00676182 0.00088375 -7.11143e-06)
(-0.00676172 0.000883755 -7.11131e-06)
(-0.00790617 0.00108212 -8.17116e-06)
(-0.00996426 0.00143886 -1.00772e-05)
(-0.0108779 0.00159723 -1.09232e-05)
(-0.0108779 0.00159721 -1.09232e-05)
(-0.0108778 0.00159728 -1.09233e-05)
(-0.0108778 0.00159725 -1.09235e-05)
(-0.0108782 0.00159719 -1.09231e-05)
(-0.0108778 0.00159722 -1.09232e-05)
(-0.010878 0.00159725 -1.09238e-05)
(-0.0108778 0.00159728 -1.09234e-05)
(-0.0108771 0.00159724 -1.09224e-05)
(-0.0108777 0.00159721 -1.09229e-05)
(-0.013632 0.00211307 -1.33191e-05)
(-0.016474 0.00264543 -1.57896e-05)
(-0.0165618 0.00266187 -1.58664e-05)
(-0.0165611 0.00266186 -1.5867e-05)
(-0.0165612 0.00266194 -1.58667e-05)
(-0.0165614 0.00266193 -1.58674e-05)
(-0.0165616 0.00266192 -1.5867e-05)
(-0.0165621 0.00266195 -1.58662e-05)
(-0.0165617 0.00266188 -1.58663e-05)
(-0.0165611 0.00266193 -1.58671e-05)
(-0.0165617 0.00266192 -1.58673e-05)
(-0.0165616 0.00266188 -1.58669e-05)
(-0.019257 0.00320004 -1.80767e-05)
(-0.0229657 0.00394015 -2.11155e-05)
(-0.0239778 0.00414229 -2.1945e-05)
(-0.023977 0.00414225 -2.19457e-05)
(-0.0239769 0.0041422 -2.19446e-05)
(-0.0239777 0.00414225 -2.19452e-05)
(-0.0239775 0.00414219 -2.19457e-05)
(-0.0239773 0.00414223 -2.19445e-05)
(-0.0239779 0.00414226 -2.1945e-05)
(-0.0239775 0.00414229 -2.19454e-05)
(-0.0239777 0.00414222 -2.19457e-05)
(-0.0239779 0.00414224 -2.19452e-05)
(-0.0239773 0.00414226 -2.19446e-05)
(-0.0284108 0.0050817 -2.53931e-05)
(-0.03298 0.00605013 -2.89476e-05)
(-0.0331154 0.00607911 -2.90539e-05)
(-0.0331159 0.00607915 -2.90533e-05)
(-0.0331166 0.00607912 -2.90532e-05)
(-0.0331165 0.00607908 -2.90539e-05)
(-0.0331162 0.00607904 -2.90542e-05)
(-0.0331155 0.00607908 -2.90537e-05)
(-0.033116 0.00607912 -2.90528e-05)
(-0.0331162 0.00607932 -2.90531e-05)
(-0.0331159 0.00607871 -2.90539e-05)
(-0.0331161 0.00607874 -2.90539e-05)
(-0.0331163 0.00607909 -2.90531e-05)
(-0.0375055 0.00707314 -3.23288e-05)
(-0.0428135 0.00827518 -3.62909e-05)
(-0.0437323 0.008483 -3.69763e-05)
(-0.0437321 0.00848341 -3.69763e-05)
(-0.0437324 0.00848316 -3.69765e-05)
(-0.0437323 0.00848279 -3.69765e-05)
(-0.043732 0.00848287 -3.69766e-05)
(-0.0437323 0.00848339 -3.69769e-05)
(-0.0437318 0.00848315 -3.69771e-05)
(-0.0437319 0.00848301 -3.69768e-05)
(-0.0437327 0.00848288 -3.69765e-05)
(-0.0437312 0.00848275 -3.69761e-05)
(-0.0437356 0.00848306 -3.69767e-05)
(-0.0461032 0.00906458 -3.86969e-05)
(-0.0518929 0.0104898 -4.29105e-05)
(-0.0553182 0.0113328 -4.54066e-05)
(-0.0553193 0.0113325 -4.5405e-05)
(-0.0553257 0.0113325 -4.53981e-05)
(-0.0553228 0.0113322 -4.54051e-05)
(-0.0553271 0.0113325 -4.54047e-05)
(-0.0553294 0.0113324 -4.54025e-05)
(-0.0553224 0.0113327 -4.54061e-05)
(-0.0553247 0.0113326 -4.5404e-05)
(-0.0553198 0.0113325 -4.5402e-05)
(-0.0553232 0.0113327 -4.54022e-05)
(-0.0553248 0.0113324 -4.5408e-05)
(-0.055323 0.0113323 -4.54027e-05)
(-0.0601289 0.0126473 -4.88694e-05)
(-0.0660467 0.0142698 -5.31476e-05)
(-0.0671624 0.0145767 -5.39533e-05)
(-0.0671693 0.0145763 -5.39523e-05)
(-0.0671739 0.014576 -5.39563e-05)
(-0.0671623 0.0145766 -5.39516e-05)
(-0.0671623 0.0145767 -5.39518e-05)
(-0.0671736 0.0145763 -5.39571e-05)
(-0.0671712 0.0145766 -5.39555e-05)
(-0.0671621 0.0145769 -5.3954e-05)
(-0.067171 0.0145767 -5.39506e-05)
(-0.0671687 0.0145762 -5.39571e-05)
(-0.0671662 0.0145763 -5.39568e-05)
(-0.067832 0.0147855 -5.44328e-05)
(-0.07345 0.0165674 -5.85522e-05)
(-0.0784131 0.0181412 -6.21892e-05)
(-0.0784127 0.0181407 -6.21927e-05)
(-0.0784136 0.018141 -6.21922e-05)
(-0.0784146 0.0181413 -6.21916e-05)
(-0.0784117 0.0181409 -6.2193e-05)
(-0.0784165 0.0181413 -6.21904e-05)
(-0.0784164 0.0181411 -6.21903e-05)
(-0.0784162 0.018141 -6.21902e-05)
(-0.078416 0.0181408 -6.219e-05)
(-0.0784095 0.0181407 -6.21899e-05)
(-0.0784132 0.0181412 -6.21878e-05)
(-0.0784206 0.0181412 -6.21901e-05)
(-0.080358 0.0188937 -6.36645e-05)
(-0.0852554 0.020792 -6.73741e-05)
(-0.0882158 0.0219374 -6.96168e-05)
(-0.0882162 0.0219374 -6.96192e-05)
(-0.088214 0.0219368 -6.96134e-05)
(-0.088211 0.0219369 -6.96119e-05)
(-0.0882115 0.021937 -6.96203e-05)
(-0.08821 0.0219375 -6.96164e-05)
(-0.0882145 0.0219373 -6.96125e-05)
(-0.088219 0.0219366 -6.96206e-05)
(-0.0882123 0.021937 -6.96185e-05)
(-0.0882101 0.0219376 -6.96129e-05)
(-0.0882165 0.0219376 -6.96152e-05)
(-0.0882147 0.0219372 -6.96198e-05)
(-0.090906 0.0233257 -7.17556e-05)
(-0.0947215 0.0252919 -7.47798e-05)
(-0.0958468 0.0258692 -7.56682e-05)
(-0.0958441 0.0258693 -7.56664e-05)
(-0.0958414 0.0258694 -7.56703e-05)
(-0.0958433 0.0258688 -7.56673e-05)
(-0.0958463 0.0258711 -7.56654e-05)
(-0.0958437 0.0258718 -7.56693e-05)
(-0.0958399 0.0258679 -7.56719e-05)
(-0.0958473 0.0258696 -7.56689e-05)
(-0.0958447 0.0258696 -7.56671e-05)
(-0.0958432 0.0258681 -7.56721e-05)
(-0.0958462 0.0258681 -7.56703e-05)
(-0.0960727 0.0260537 -7.58595e-05)
(-0.0985632 0.0280391 -7.79111e-05)
(-0.100818 0.0298375 -7.97671e-05)
(-0.100814 0.0298436 -7.97681e-05)
(-0.100816 0.0298416 -7.97745e-05)
(-0.100817 0.0298397 -7.97703e-05)
(-0.100819 0.0298405 -7.97714e-05)
(-0.100815 0.0298386 -7.97724e-05)
(-0.100816 0.0298446 -7.97735e-05)
(-0.100818 0.0298401 -7.97746e-05)
(-0.100819 0.0298408 -7.97704e-05)
(-0.100815 0.0298416 -7.97715e-05)
(-0.100817 0.0298372 -7.97725e-05)
(-0.100818 0.0298431 -7.97685e-05)
(-0.101442 0.0310108 -8.02701e-05)
(-0.102502 0.0329648 -8.11155e-05)
(-0.102928 0.0337579 -8.14514e-05)
(-0.102924 0.0337576 -8.14495e-05)
(-0.102925 0.0337588 -8.14523e-05)
(-0.102931 0.0337634 -8.14504e-05)
(-0.102928 0.0337565 -8.14488e-05)
(-0.102924 0.0337562 -8.14519e-05)
(-0.10293 0.0337608 -8.14501e-05)
(-0.102926 0.0337604 -8.14531e-05)
(-0.102926 0.0337567 -8.14558e-05)
(-0.102927 0.0337564 -8.14491e-05)
(-0.102924 0.0337609 -8.14472e-05)
(-0.102848 0.0342221 -8.13301e-05)
(-0.102509 0.0361069 -8.08354e-05)
(-0.102248 0.0375328 -8.04581e-05)
(-0.102246 0.037535 -8.0456e-05)
(-0.102251 0.0375361 -8.0454e-05)
(-0.10225 0.0375382 -8.04566e-05)
(-0.102248 0.0375363 -8.0459e-05)
(-0.102252 0.0375338 -8.04569e-05)
(-0.10225 0.0375365 -8.04547e-05)
(-0.102249 0.0375387 -8.04572e-05)
(-0.102248 0.0375356 -8.04598e-05)
(-0.102251 0.0375337 -8.04576e-05)
(-0.10225 0.0375364 -8.04554e-05)
(-0.102153 0.0376431 -8.03447e-05)
(-0.100576 0.0394234 -7.85289e-05)
(-0.0990929 0.0410912 -7.68253e-05)
(-0.0990972 0.0410905 -7.68268e-05)
(-0.0990927 0.0410941 -7.68246e-05)
(-0.0990925 0.041089 -7.68216e-05)
(-0.0990745 0.0410886 -7.68224e-05)
(-0.0990876 0.0410921 -7.68246e-05)
(-0.0991054 0.041091 -7.6823e-05)
(-0.0990877 0.0410904 -7.68202e-05)
(-0.0990917 0.04109 -7.68209e-05)
(-0.0991173 0.0410893 -7.68224e-05)
(-0.0991004 0.0410925 -7.68252e-05)
(-0.0989132 0.0411978 -7.66323e-05)
(-0.096335 0.0428269 -7.36539e-05)
(-0.0939387 0.0443506 -7.0868e-05)
(-0.0939668 0.0443473 -7.08682e-05)
(-0.093911 0.0443482 -7.08684e-05)
(-0.0939191 0.0443482 -7.08663e-05)
(-0.0939276 0.0443482 -7.08684e-05)
(-0.0939137 0.0443491 -7.08686e-05)
(-0.093963 0.0443491 -7.08706e-05)
(-0.0939302 0.0443491 -7.08686e-05)
(-0.0938974 0.0443491 -7.08666e-05)
(-0.0939461 0.0443491 -7.08686e-05)
(-0.0939541 0.044349 -7.08706e-05)
(-0.0930226 0.0447443 -6.9818e-05)
(-0.0897238 0.0461905 -6.59316e-05)
(-0.0873212 0.0472417 -6.30962e-05)
(-0.087285 0.0472414 -6.30967e-05)
(-0.0872884 0.0472452 -6.31168e-05)
(-0.087287 0.0472439 -6.31146e-05)
(-0.0872854 0.0472426 -6.30656e-05)
(-0.0873059 0.0472438 -6.30822e-05)
(-0.0873261 0.047245 -6.3099e-05)
(-0.0873078 0.0472462 -6.31153e-05)
(-0.0872727 0.0472421 -6.31197e-05)
(-0.0872976 0.0472443 -6.30737e-05)
(-0.087301 0.0472441 -6.30781e-05)
(-0.0847228 0.0480924 -5.99693e-05)
(-0.0809569 0.0493342 -5.54502e-05)
(-0.0797532 0.0497177 -5.40288e-05)
(-0.0797396 0.0497153 -5.40279e-05)
(-0.0797407 0.0497185 -5.40371e-05)
(-0.0797787 0.049718 -5.40093e-05)
(-0.0797653 0.0497193 -5.40084e-05)
(-0.0797516 0.0497207 -5.40077e-05)
(-0.0797747 0.0497183 -5.40069e-05)
(-0.0797396 0.0497178 -5.40159e-05)
(-0.0797406 0.0497173 -5.40248e-05)
(-0.0797492 0.0497168 -5.40144e-05)
(-0.0784762 0.0500403 -5.24025e-05)
(-0.0744959 0.0510441 -4.73717e-05)
(-0.071802 0.0517279 -4.39223e-05)
(-0.0717779 0.0517285 -4.39598e-05)
(-0.071766 0.0517241 -4.397e-05)
(-0.0718118 0.0517247 -4.39373e-05)
(-0.0717754 0.0517268 -4.3932e-05)
(-0.0717859 0.0517273 -4.39689e-05)
(-0.071809 0.0517265 -4.39788e-05)
(-0.0717852 0.0517271 -4.39467e-05)
(-0.0717835 0.0517291 -4.39415e-05)
(-0.0717818 0.0517276 -4.39363e-05)
(-0.0710738 0.0518608 -4.29894e-05)
(-0.0670548 0.052616 -3.75943e-05)
(-0.0637941 0.0532365 -3.3133e-05)
(-0.0637967 0.053238 -3.31449e-05)
(-0.0637657 0.0532396 -3.31239e-05)
(-0.0637905 0.0532389 -3.31301e-05)
(-0.0638151 0.0532383 -3.31695e-05)
(-0.0638173 0.0532365 -3.31485e-05)
(-0.0637766 0.0532392 -3.31223e-05)
(-0.0637685 0.0532385 -3.31286e-05)
(-0.0637928 0.0532379 -3.3135e-05)
(-0.0638066 0.0532384 -3.31359e-05)
(-0.0627811 0.0533681 -3.17113e-05)
(-0.058944 0.0538675 -2.61161e-05)
(-0.0561011 0.0542352 -2.19731e-05)
(-0.0560566 0.0542372 -2.19953e-05)
(-0.056075 0.0542361 -2.1986e-05)
(-0.0560934 0.0542381 -2.19766e-05)
(-0.0560806 0.054237 -2.19984e-05)
(-0.0560679 0.0542359 -2.19893e-05)
(-0.0560773 0.0542388 -2.19767e-05)
(-0.0560868 0.0542386 -2.19948e-05)
(-0.0560742 0.0542375 -2.19858e-05)
(-0.0560835 0.0542343 -2.19733e-05)
(-0.0540411 0.0543732 -1.8893e-05)
(-0.0504307 0.0546183 -1.34665e-05)
(-0.0488512 0.054724 -1.11012e-05)
(-0.0488565 0.0547253 -1.10781e-05)
(-0.0488692 0.0547228 -1.10865e-05)
(-0.0488451 0.0547212 -1.10638e-05)
(-0.0488725 0.0547233 -1.10687e-05)
(-0.0488779 0.0547246 -1.10755e-05)
(-0.0488541 0.054723 -1.1082e-05)
(-0.0488594 0.0547242 -1.10887e-05)
(-0.0488576 0.0547263 -1.10648e-05)
(-0.0485419 0.0547225 -1.06132e-05)
(-0.0452233 0.0547153 -5.59127e-06)
(-0.0422275 0.0547116 -1.02027e-06)
(-0.0422507 0.0547116 -1.01538e-06)
(-0.0422516 0.0547108 -1.01067e-06)
(-0.0422523 0.0547129 -1.00601e-06)
(-0.0422414 0.0547247 -1.00112e-06)
(-0.0422363 0.0547081 -9.96407e-07)
(-0.0422373 0.0546907 -1.01937e-06)
(-0.0422538 0.0547025 -1.01461e-06)
(-0.042249 0.0547216 -1.00977e-06)
(-0.0422225 0.0547209 -1.00537e-06)
(-0.0397303 0.0545164 2.80313e-06)
(-0.0367879 0.0542789 7.26423e-06)
(-0.0363199 0.0542119 7.95498e-06)
(-0.0362837 0.0542255 7.94459e-06)
(-0.0362961 0.0542319 7.95959e-06)
(-0.0363132 0.0542189 7.97574e-06)
(-0.0363039 0.0542324 7.93906e-06)
(-0.0362899 0.0542386 7.95387e-06)
(-0.036302 0.0542448 7.96879e-06)
(-0.0363142 0.054225 7.95747e-06)
(-0.0363003 0.0542311 7.94638e-06)
(-0.0341559 0.0538718 1.12642e-05)
(-0.0315115 0.0533864 1.53318e-05)
(-0.0310353 0.0533197 1.60773e-05)
(-0.031042 0.0533233 1.6078e-05)
(-0.0310193 0.0532947 1.60514e-05)
(-0.0310219 0.0533166 1.60751e-05)
(-0.0310284 0.0533201 1.6076e-05)
(-0.0310349 0.0533233 1.60764e-05)
(-0.0310375 0.0533202 1.60753e-05)
(-0.03104 0.0533169 1.60738e-05)
(-0.0310387 0.0533073 1.60951e-05)
(-0.0287265 0.0526651 1.99107e-05)
(-0.0264046 0.0520326 2.3735e-05)
(-0.0264041 0.0520111 2.37468e-05)
(-0.0264246 0.0520077 2.37557e-05)
(-0.0264178 0.052022 2.37378e-05)
(-0.0264142 0.0520186 2.37465e-05)
(-0.0264107 0.0520151 2.37554e-05)
(-0.0264039 0.0520293 2.37376e-05)
(-0.0264208 0.0520197 2.37435e-05)
(-0.0264142 0.0520103 2.37494e-05)
(-0.0256184 0.051676 2.51712e-05)
(-0.0235992 0.0508753 2.87317e-05)
(-0.0223784 0.0503803 3.08596e-05)
(-0.0224134 0.0503785 3.08786e-05)
(-0.0223999 0.0503939 3.0894e-05)
(-0.0223838 0.0503807 3.08829e-05)
(-0.0223906 0.0503901 3.08719e-05)
(-0.0223998 0.0503828 3.08645e-05)
(-0.022409 0.0503753 3.08795e-05)
(-0.0223932 0.0503848 3.08688e-05)
(-0.0223776 0.0503719 3.08801e-05)
(-0.0206405 0.0494278 3.38197e-05)
(-0.0189115 0.0484662 3.67015e-05)
(-0.0189121 0.0484623 3.67078e-05)
(-0.0189107 0.048475 3.67103e-05)
(-0.0189072 0.0484822 3.67085e-05)
(-0.0189038 0.0484679 3.6707e-05)
(-0.0189238 0.0484588 3.67092e-05)
(-0.0189224 0.0484713 3.67116e-05)
(-0.0188956 0.0484732 3.6706e-05)
(-0.0189114 0.0484752 3.67217e-05)
(-0.0177094 0.047599 3.82763e-05)
(-0.0161987 0.0465384 4.02006e-05)
(-0.0158939 0.046345 4.05598e-05)
(-0.0159027 0.0463362 4.05571e-05)
(-0.0159098 0.0463226 4.0571e-05)
(-0.0159168 0.0463296 4.05642e-05)
(-0.0159238 0.0463367 4.05574e-05)
(-0.0159102 0.0463233 4.05508e-05)
(-0.0158969 0.0463303 4.05643e-05)
(-0.0159038 0.0463373 4.0578e-05)
(-0.0148471 0.0453809 4.13138e-05)
(-0.0135541 0.0442447 4.22278e-05)
(-0.0133294 0.0440327 4.23969e-05)
(-0.0133267 0.0440257 4.24036e-05)
(-0.0133241 0.044019 4.24043e-05)
(-0.0133202 0.0440274 4.24047e-05)
(-0.0133359 0.044036 4.24052e-05)
(-0.0133321 0.0440249 4.24037e-05)
(-0.0133088 0.0440333 4.24041e-05)
(-0.013305 0.0440031 4.24026e-05)
(-0.0121896 0.0427819 4.23377e-05)
(-0.0110972 0.0416006 4.22749e-05)
(-0.0111027 0.041597 4.22738e-05)
(-0.011089 0.0415933 4.22746e-05)
(-0.0111121 0.0416047 4.22752e-05)
(-0.0110976 0.0415972 4.22739e-05)
(-0.0111007 0.0416045 4.22743e-05)
(-0.0111039 0.0416117 4.22746e-05)
(-0.0110895 0.0416043 4.22734e-05)
(-0.0107083 0.041083 4.17343e-05)
(-0.00976144 0.0398296 4.04029e-05)
(-0.0091854 0.0391106 3.96118e-05)
(-0.00917827 0.0391076 3.96118e-05)
(-0.00918939 0.0390865 3.961e-05)
(-0.0091824 0.0391015 3.96119e-05)
(-0.00919249 0.039113 3.96119e-05)
(-0.00920339 0.0390922 3.96119e-05)
(-0.00917875 0.0390892 3.96119e-05)
(-0.00917024 0.0391147 3.9612e-05)
(-0.00839219 0.0378649 3.6775e-05)
(-0.00756473 0.0366003 3.38698e-05)
(-0.00752847 0.0365818 3.38034e-05)
(-0.00752856 0.0365525 3.38041e-05)
(-0.00754583 0.0365578 3.38031e-05)
(-0.00754463 0.0365741 3.38014e-05)
(-0.0075256 0.03657 3.3802e-05)
(-0.00754072 0.0365659 3.38027e-05)
(-0.00753955 0.036565 3.38027e-05)
(-0.00701785 0.0356575 3.10564e-05)
(-0.00631432 0.0343837 2.72793e-05)
(-0.00611768 0.0340223 2.62494e-05)
(-0.00610539 0.0340439 2.6248e-05)
(-0.0061096 0.0340324 2.62483e-05)
(-0.00613033 0.0340208 2.62487e-05)
(-0.00611814 0.0340422 2.62473e-05)
(-0.006106 0.0340471 2.62493e-05)
(-0.00610922 0.0340302 2.62486e-05)
(-0.00571058 0.0332115 2.424e-05)
(-0.00510604 0.031967 2.11569e-05)
(-0.00488977 0.0315276 2.00799e-05)
(-0.00489856 0.0315388 2.00795e-05)
(-0.00489163 0.031534 2.00792e-05)
(-0.00488415 0.0315267 2.00788e-05)
(-0.00489261 0.0315196 2.00784e-05)
(-0.00488527 0.031528 2.00796e-05)
(-0.00489357 0.0315365 2.00792e-05)
(-0.00450037 0.0306168 1.89019e-05)
(-0.00397076 0.029379 1.73216e-05)
(-0.00384496 0.0290594 1.69164e-05)
(-0.00384236 0.0290768 1.69139e-05)
(-0.00383914 0.0290744 1.69135e-05)
(-0.00383601 0.0290719 1.69161e-05)
(-0.00383313 0.0290718 1.69154e-05)
(-0.00384528 0.0290716 1.69148e-05)
(-0.00384245 0.0290714 1.69156e-05)
(-0.00338064 0.0278692 1.66005e-05)
(-0.0029208 0.0266853 1.62871e-05)
(-0.00293659 0.0266794 1.62881e-05)
(-0.00293779 0.0266735 1.62876e-05)
(-0.00292404 0.0266803 1.62875e-05)
(-0.00293924 0.026685 1.62876e-05)
(-0.00293971 0.0266878 1.62879e-05)
(-0.00292601 0.0266781 1.6288e-05)
(-0.00277 0.0261986 1.65957e-05)
(-0.00237343 0.0250514 1.7332e-05)
(-0.00214942 0.0243796 1.77614e-05)
(-0.00215361 0.0243789 1.77634e-05)
(-0.00214359 0.0243783 1.77639e-05)
(-0.00216146 0.024376 1.77618e-05)
(-0.00215133 0.024372 1.77627e-05)
(-0.00214116 0.0243818 1.77635e-05)
(-0.00215865 0.0243779 1.77616e-05)
(-0.00182098 0.0232816 1.94992e-05)
(-0.00148469 0.022189 2.12558e-05)
(-0.0014778 0.0221665 2.12758e-05)
(-0.00147086 0.0221712 2.12766e-05)
(-0.00147731 0.022173 2.12759e-05)
(-0.00148364 0.0221613 2.12751e-05)
(-0.00147689 0.022166 2.12759e-05)
(-0.00146998 0.0221825 2.12767e-05)
(-0.00127898 0.0214332 2.31838e-05)
(-0.000984087 0.0203733 2.58659e-05)
(-0.000900875 0.0200809 2.66406e-05)
(-0.000896779 0.0200793 2.66411e-05)
(-0.000892543 0.0200634 2.66412e-05)
(-0.000901196 0.0200708 2.66405e-05)
(-0.000896981 0.0200795 2.66415e-05)
(-0.000892805 0.0200752 2.66412e-05)
(-0.000749301 0.0194999 2.84046e-05)
(-0.000505641 0.0185113 3.14431e-05)
(-0.000402442 0.0180972 3.27158e-05)
(-0.000400553 0.0180999 3.27162e-05)
(-0.000398657 0.0181014 3.27171e-05)
(-0.000396803 0.0180916 3.27175e-05)
(-0.000407254 0.0180932 3.27169e-05)
(-0.000405386 0.0181059 3.27164e-05)
(-0.000269267 0.0175462 3.40091e-05)
(-6.10482e-05 0.0166118 3.61916e-05)
(3.63066e-05 0.0162418 3.70819e-05)
(3.61927e-05 0.0162377 3.70819e-05)
(2.39982e-05 0.0162347 3.7082e-05)
(2.38864e-05 0.0162307 3.7082e-05)
(3.5631e-05 0.0162368 3.7082e-05)
(3.55199e-05 0.0162437 3.70819e-05)
(0.000164529 0.0155927 3.80316e-05)
(0.000351509 0.0147099 3.93117e-05)
(0.000396642 0.014489 3.96421e-05)
(0.000394777 0.0145022 3.96417e-05)
(0.000392907 0.0144913 3.9642e-05)
(0.000391076 0.0144927 3.96423e-05)
(0.000389263 0.0144943 3.96417e-05)
(0.00039879 0.0144713 3.96536e-05)
(0.000555373 0.0136678 4.0083e-05)
(0.000711159 0.012869 4.05012e-05)
(0.000707857 0.0128644 4.05011e-05)
(0.000704439 0.0128704 4.05009e-05)
(0.000701237 0.0128666 4.0502e-05)
(0.000697923 0.0128621 4.05019e-05)
(0.000705666 0.0128673 4.05017e-05)
(0.00076807 0.0125337 4.01424e-05)
(0.000895585 0.0117766 3.93314e-05)
(0.000956735 0.0113503 3.88802e-05)
(0.000963027 0.011351 3.88801e-05)
(0.000958617 0.011363 3.88799e-05)
(0.000954097 0.0113636 3.88797e-05)
(0.000970958 0.011353 3.88796e-05)
(0.00096642 0.0113524 3.88796e-05)
(0.00106728 0.0106664 3.65491e-05)
(0.00117833 0.00996321 3.418e-05)
(0.00117278 0.0099581 3.41414e-05)
(0.00116722 0.00995261 3.4141e-05)
(0.00117212 0.0099476 3.41403e-05)
(0.00117702 0.00995303 3.41407e-05)
(0.00117152 0.00995785 3.41414e-05)
(0.00123744 0.00953359 3.12036e-05)
(0.00133354 0.00888781 2.66839e-05)
(0.00135773 0.00866308 2.51026e-05)
(0.00135136 0.00865268 2.51019e-05)
(0.00135513 0.00865288 2.51014e-05)
(0.00135878 0.00866218 2.51014e-05)
(0.00135237 0.00866109 2.51022e-05)
(0.00138557 0.00839373 2.19325e-05)
(0.00146765 0.00780261 1.46658e-05)
(0.00151989 0.00747205 1.05707e-05)
(0.0015227 0.00746708 1.057e-05)
(0.00151531 0.00745993 1.05692e-05)
(0.00150798 0.00746254 1.05703e-05)
(0.00151033 0.00746512 1.05705e-05)
(0.0015421 0.00728005 7.42939e-06)
(0.00162124 0.00673429 -1.829e-06)
(0.00166984 0.00636625 -7.94687e-06)
(0.00166117 0.00636148 -7.9462e-06)
(0.00166352 0.00637217 -7.94643e-06)
(0.0016659 0.00637343 -7.94666e-06)
(0.00165737 0.00636871 -7.946e-06)
(0.00168589 0.00618847 -1.11256e-05)
(0.00176108 0.00568079 -2.00421e-05)
(0.00180816 0.00536024 -2.57797e-05)
(0.00180075 0.00536563 -2.57797e-05)
(0.0018016 0.00535943 -2.57789e-05)
(0.00180997 0.00535746 -2.57792e-05)
(0.00180181 0.00536036 -2.57793e-05)
(0.00183035 0.00514181 -2.89941e-05)
(0.00189278 0.00468813 -3.56381e-05)
(0.00192717 0.00444053 -3.90657e-05)
(0.00193547 0.00443657 -3.9065e-05)
(0.00193578 0.00445225 -3.90647e-05)
(0.0019273 0.00445031 -3.90653e-05)
(0.0019276 0.0044396 -3.90659e-05)
(0.00197039 0.0041414 -4.20227e-05)
(0.00202069 0.00373086 -4.61335e-05)
(0.00203695 0.00360981 -4.72875e-05)
(0.00203681 0.00361145 -4.72871e-05)
(0.00203577 0.0036201 -4.72862e-05)
(0.00203391 0.00361019 -4.72864e-05)
(0.00204131 0.00358502 -4.73234e-05)
(0.00209148 0.00321787 -4.79341e-05)
(0.00212376 0.00286789 -4.85084e-05)
(0.00212146 0.00286191 -4.85083e-05)
(0.00212748 0.00285596 -4.85075e-05)
(0.00213344 0.00286653 -4.85074e-05)
(0.00213203 0.00287004 -4.85078e-05)
(0.00213962 0.00269532 -4.67547e-05)
(0.0021779 0.00235725 -4.32719e-05)
(0.00220695 0.00219078 -4.15424e-05)
(0.00220524 0.00218914 -4.15424e-05)
(0.00219553 0.00218749 -4.15423e-05)
(0.00220093 0.00219298 -4.15423e-05)
(0.00220636 0.00218257 -4.1233e-05)
(0.00222743 0.00188062 -3.44838e-05)
(0.00225717 0.00158868 -2.8044e-05)
(0.00226311 0.00158965 -2.80439e-05)
(0.00226723 0.00159719 -2.80444e-05)
(0.00226358 0.00159691 -2.80442e-05)
(0.0022608 0.00158951 -2.8044e-05)
(0.00228107 0.00140594 -2.20484e-05)
(0.00230122 0.00114697 -1.32946e-05)
(0.00231264 0.00106505 -1.05363e-05)
(0.00231644 0.00105981 -1.0536e-05)
(0.00231348 0.00105502 -1.05365e-05)
(0.00231059 0.00105775 -1.05364e-05)
(0.00232259 0.000956176 -7.32609e-06)
(0.00234855 0.000713842 3.25125e-07)
(0.00235946 0.000584306 4.76627e-06)
(0.00236377 0.000581757 4.76657e-06)
(0.00235985 0.000578952 4.76658e-06)
(0.00236322 0.000583518 4.76586e-06)
(0.00236748 0.000530251 5.42195e-06)
(0.00238433 0.000311177 8.09965e-06)
(0.00240834 0.000150956 1.01215e-05)
(0.00241231 0.000157481 1.0121e-05)
(0.00240828 0.000149645 1.01211e-05)
(0.0024034 0.000148867 1.01212e-05)
(0.00241353 0.000127089 9.61927e-06)
(0.00243848 -6.99188e-05 6.51287e-06)
(0.00245455 -0.000237764 3.90839e-06)
(0.00245565 -0.000229584 3.90818e-06)
(0.00245153 -0.000228518 3.90789e-06)
(0.00244743 -0.000234403 3.90831e-06)
(0.00245624 -0.000260656 2.92996e-06)
(0.00247948 -0.000436852 -2.97828e-06)
(0.00249575 -0.000578054 -7.90887e-06)
(0.00249662 -0.000575087 -7.90866e-06)
(0.00249076 -0.000578933 -7.90912e-06)
(0.00249328 -0.00057641 -7.90952e-06)
(0.0025025 -0.000620515 -9.09233e-06)
(0.00250994 -0.000776598 -1.37491e-05)
(0.00252393 -0.00088537 -1.72217e-05)
(0.00253206 -0.000881294 -1.72213e-05)
(0.00252702 -0.000883787 -1.72223e-05)
(0.00252849 -0.000886287 -1.72219e-05)
(0.00253567 -0.00094666 -1.74572e-05)
(0.00254274 -0.00108405 -1.80077e-05)
(0.002557 -0.00115645 -1.83225e-05)
(0.00255838 -0.00115765 -1.83224e-05)
(0.00255333 -0.00116523 -1.83222e-05)
(0.00255387 -0.00115972 -1.83226e-05)
(0.00256617 -0.0012356 -1.65461e-05)
(0.00257923 -0.00136169 -1.39391e-05)
(0.00257964 -0.00139913 -1.31081e-05)
(0.00257924 -0.00139838 -1.31081e-05)
(0.00257427 -0.0014047 -1.31083e-05)
(0.00257546 -0.00140481 -1.30482e-05)
(0.00258736 -0.0015019 -8.9541e-06)
(0.00259305 -0.00161072 -4.91946e-06)
(0.00259865 -0.00161507 -4.91925e-06)
(0.00259898 -0.00160774 -4.91931e-06)
(0.00259326 -0.00160649 -4.91937e-06)
(0.00259281 -0.00165259 -3.1157e-06)
(0.00259832 -0.00174601 1.11044e-06)
(0.0026038 -0.00179715 3.53321e-06)
(0.00260407 -0.00179511 3.53292e-06)
(0.00260435 -0.00179306 3.53263e-06)
(0.00260894 -0.00179584 3.5332e-06)
(0.0026077 -0.00187409 6.34154e-06)
(0.00260717 -0.00195827 9.41538e-06)
(0.00261246 -0.00196079 9.68108e-06)
(0.00261194 -0.00195752 9.6814e-06)
(0.00261143 -0.00196 9.68114e-06)
(0.00261585 -0.0020016 1.02442e-05)
(0.00262026 -0.00207124 1.14293e-05)
(0.00261972 -0.00210703 1.20507e-05)
(0.00262404 -0.00211382 1.2051e-05)
(0.00262278 -0.00210939 1.20513e-05)
(0.00261667 -0.00211664 1.20966e-05)
(0.00262646 -0.00218399 1.25177e-05)
(0.00263549 -0.00223934 1.28935e-05)
(0.00263417 -0.0022344 1.28938e-05)
(0.00263287 -0.00223493 1.2894e-05)
(0.00263628 -0.0022403 1.2894e-05)
(0.00264578 -0.00228931 1.35483e-05)
(0.00265054 -0.00234407 1.43529e-05)
(0.00264919 -0.00234948 1.45031e-05)
(0.00265175 -0.00235356 1.45032e-05)
(0.00265431 -0.00235233 1.45033e-05)
(0.00265822 -0.00237862 1.49832e-05)
(0.00266736 -0.00243104 1.58002e-05)
(0.0026705 -0.00245101 1.61374e-05)
(0.00267359 -0.00245513 1.61378e-05)
(0.00267151 -0.00245406 1.61377e-05)
(0.00266941 -0.00246839 1.57926e-05)
(0.00268203 -0.00251276 1.49878e-05)
(0.00268437 -0.00254145 1.45277e-05)
(0.00268224 -0.00254002 1.45277e-05)
(0.00268521 -0.00253855 1.45277e-05)
(0.00268814 -0.00255221 1.3556e-05)
(0.00269538 -0.00258511 1.06645e-05)
(0.00269691 -0.00261215 8.74462e-06)
(0.00269412 -0.00261474 8.74463e-06)
(0.00269203 -0.00261299 8.74468e-06)
(0.00269419 -0.00262043 8.00178e-06)
(0.00270058 -0.00265649 5.59453e-06)
(0.00270271 -0.00267837 3.93022e-06)
(0.00270545 -0.00267636 3.9302e-06)
(0.00270688 -0.00267793 3.93019e-06)
(0.00270284 -0.00268361 4.15276e-06)
(0.00270966 -0.00271441 4.79844e-06)
(0.00271646 -0.00273549 5.22158e-06)
(0.00271307 -0.00273201 5.22161e-06)
(0.00270971 -0.00273326 5.22158e-06)
(0.00271574 -0.00274388 6.57717e-06)
(0.00272176 -0.0027684 9.63971e-06)
(0.00272304 -0.00278346 1.13467e-05)
(0.00272433 -0.00278445 1.13467e-05)
(0.002721 -0.00278546 1.13466e-05)
(0.00272227 -0.00280015 1.2872e-05)
(0.00273202 -0.00282324 1.54114e-05)
(0.00273656 -0.00283185 1.64254e-05)
(0.00273261 -0.00283198 1.6425e-05)
(0.00273381 -0.00283273 1.64249e-05)
(0.00274394 -0.00285582 1.68723e-05)
(0.00274895 -0.00287814 1.74183e-05)
(0.00274883 -0.00288184 1.75172e-05)
(0.00275314 -0.0028811 1.75173e-05)
(0.00275363 -0.00288098 1.73508e-05)
(0.00275906 -0.00290769 1.55903e-05)
(0.00277196 -0.00293298 1.39965e-05)
(0.00277118 -0.00293138 1.39961e-05)
(0.00276724 -0.00293103 1.39961e-05)
(0.00277621 -0.00293927 1.2393e-05)
(0.00278394 -0.00296323 8.64767e-06)
(0.00278309 -0.00297855 6.50563e-06)
(0.00278763 -0.002978 6.5055e-06)
(0.00278797 -0.00297748 6.50579e-06)
(0.00278708 -0.00299659 2.24625e-06)
(0.00279873 -0.00301981 -2.96632e-06)
(0.00279786 -0.00301786 -3.91947e-06)
(0.00279693 -0.00302002 -3.91944e-06)
(0.00280075 -0.00302693 -5.75197e-06)
(0.00279983 -0.00304131 -1.2756e-05)
(0.00279895 -0.00305561 -1.79279e-05)
(0.00279805 -0.00305758 -1.79278e-05)
(0.00280121 -0.00305551 -1.79277e-05)
(0.00280434 -0.00306546 -2.28852e-05)
(0.00280289 -0.00307877 -2.94133e-05)
(0.00280143 -0.00307998 -3.09845e-05)
(0.00280396 -0.00308119 -3.09846e-05)
(0.00280308 -0.00308692 -3.1791e-05)
(0.00280611 -0.00309654 -3.43909e-05)
(0.0028086 -0.00310546 -3.61846e-05)
(0.00280661 -0.00310594 -3.61846e-05)
(0.00280851 -0.00310251 -3.61846e-05)
(0.00281147 -0.00311571 -3.50382e-05)
(0.0028177 -0.00312823 -3.3781e-05)
(0.002819 -0.00312798 -3.367e-05)
(0.00281701 -0.00312832 -3.36701e-05)
(0.00282312 -0.00313302 -3.23971e-05)
(0.00282866 -0.00314461 -3.01435e-05)
(0.00282666 -0.00315238 -2.91632e-05)
(0.00282519 -0.00315319 -2.91633e-05)
(0.00283011 -0.00315652 -2.85154e-05)
(0.00283447 -0.00316662 -2.60906e-05)
(0.00283615 -0.00317414 -2.43141e-05)
(0.00283833 -0.00317483 -2.43142e-05)
(0.00283998 -0.00317495 -2.42441e-05)
(0.00284058 -0.00318476 -2.03358e-05)
(0.00284477 -0.00319452 -1.64972e-05)
(0.00284587 -0.00319397 -1.6497e-05)
(0.00284693 -0.00319343 -1.64972e-05)
(0.00285155 -0.00320353 -1.25421e-05)
(0.00285209 -0.00321302 -7.70494e-06)
(0.00285261 -0.00321183 -6.82268e-06)
(0.00285364 -0.00321472 -6.82244e-06)
(0.00285813 -0.00322455 -3.14775e-06)
(0.0028621 -0.00323029 2.38659e-06)
(0.00286553 -0.00323193 4.24577e-06)
(0.002866 -0.00323413 4.24566e-06)
(0.00286301 -0.00323971 7.36512e-06)
(0.00286639 -0.00324812 1.29743e-05)
(0.00286974 -0.00325305 1.5464e-05)
(0.00286968 -0.00325456 1.54639e-05)
(0.00286675 -0.00325324 1.8029e-05)
(0.00286717 -0.0032586 2.32223e-05)
(0.00286999 -0.00326618 2.58505e-05)
(0.00286614 -0.00326707 2.58506e-05)
(0.00286609 -0.00326517 2.77845e-05)
(0.00286559 -0.00326931 3.18484e-05)
(0.00286507 -0.00327344 3.39784e-05)
(0.00286505 -0.00327155 3.39785e-05)
(0.00286131 -0.0032756 3.60797e-05)
(0.00286082 -0.00327643 4.02672e-05)
(0.00286035 -0.00327401 4.23534e-05)
(0.00286261 -0.00327748 4.23534e-05)
(0.00286214 -0.00327827 4.51922e-05)
(0.0028585 -0.00327905 5.01684e-05)
(0.00285715 -0.00328194 5.23059e-05)
(0.0028558 -0.00328167 5.23056e-05)
(0.00285847 -0.0032793 5.54252e-05)
(0.00285804 -0.00328006 6.00028e-05)
(0.0028567 -0.00328289 6.14605e-05)
(0.00285846 -0.00328262 6.14606e-05)
(0.00285758 -0.0032798 6.36865e-05)
(0.00285627 -0.00327953 6.63564e-05)
(0.002858 -0.00328231 6.67992e-05)
(0.00285973 -0.00328206 6.67573e-05)
(0.00286399 -0.00328129 6.51374e-05)