/*--------------------------------*- C++ -*----------------------------------*\
| =========                 |                                                 |
| \\      /  F ield         | OpenFOAM: The Open Source CFD Toolbox           |
|  \\    /   O peration     | Version:  v1806                                 |
|   \\  /    A nd           | Web:      www.OpenFOAM.com                      |
|    \\/     M anipulation  |                                                 |
\*---------------------------------------------------------------------------*/
FoamFile
{
    version     2.0;
    format      ascii;
    class       volScalarField;
    location    "10000";
    object      k_DNS;
}
// * * * * * * * * * * * * * * * * * * * * * * * * * * * * * * * * * * * * * //

dimensions      [0 2 -2 0 0 0 0];


internalField   nonuniform List<scalar> 
1025
(
9.08977e-08
7.51964e-07
2.16324e-06
3.86874e-06
6.62829e-06
9.93044e-06
1.32482e-05
1.77959e-05
2.34897e-05
2.92102e-05
3.49578e-05
4.09656e-05
5.00204e-05
5.91179e-05
6.82582e-05
7.74415e-05
8.66681e-05
9.66371e-05
0.000110232
0.000123892
0.000137615
0.000151403
0.000165257
0.000179175
0.000193159
0.000211491
0.000230972
0.000250545
0.000270211
0.000289968
0.000309819
0.000329762
0.000349799
0.000370808
0.000397456
0.000424228
0.000451124
0.000478148
0.000505301
0.000532582
0.000559989
0.000587527
0.000615194
0.000645474
0.000680892
0.00071648
0.000752236
0.000788156
0.000824246
0.000860507
0.000896942
0.000933544
0.00097032
0.00100727
0.0010491
0.00109493
0.00114097
0.00118722
0.00123369
0.00128038
0.00132729
0.00137442
0.00142177
0.00146935
0.00151714
0.00156517
0.00162253
0.00168045
0.00173864
0.00179711
0.00185586
0.00191488
0.00197417
0.00203375
0.00209361
0.00215374
0.00221416
0.00227487
0.00234316
0.00241451
0.0024862
0.00255822
0.00263059
0.0027033
0.00277635
0.00284974
0.00292348
0.00299756
0.00307199
0.00314678
0.00322191
0.0033073
0.00339341
0.00347992
0.00356684
0.00365417
0.00374191
0.00383006
0.00391863
0.00400761
0.00409701
0.00418683
0.00427707
0.00436774
0.00446684
0.00456809
0.00466981
0.00477202
0.00487471
0.00497787
0.00508153
0.00518566
0.00529029
0.00539542
0.00550104
0.00560715
0.00571377
0.00582423
0.00594009
0.0060565
0.00617346
0.00629097
0.00640903
0.00652765
0.00664683
0.00676658
0.00688687
0.00700773
0.00712918
0.00725119
0.00737376
0.00750155
0.00763104
0.00776113
0.00789183
0.00802314
0.00815507
0.00828763
0.00842081
0.00855462
0.00868905
0.00882412
0.00895983
0.00909617
0.00923341
0.00937323
0.0095137
0.00965483
0.00979664
0.00993911
0.0100822
0.010226
0.0103705
0.0105157
0.0106616
0.0108081
0.0109553
0.0111033
0.011251
0.0113982
0.011546
0.0116946
0.0118438
0.0119938
0.0121444
0.0122958
0.0124479
0.0126007
0.0127542
0.0129084
0.0130633
0.0132191
0.0133707
0.0135209
0.0136718
0.0138235
0.0139759
0.0141289
0.0142828
0.0144373
0.0145925
0.0147485
0.0149052
0.0150627
0.0152208
0.0153787
0.0155269
0.0156756
0.015825
0.0159752
0.0161261
0.0162777
0.01643
0.016583
0.0167368
0.0168912
0.0170464
0.0172024
0.017359
0.0175071
0.0176493
0.0177922
0.0179358
0.0180802
0.0182252
0.0183708
0.0185172
0.0186643
0.018812
0.0189605
0.0191096
0.0192595
0.0194053
0.0195374
0.0196702
0.0198036
0.0199375
0.0200721
0.0202074
0.0203432
0.0204798
0.020617
0.0207548
0.0208932
0.0210323
0.0211709
0.0212899
0.0214096
0.0215298
0.0216506
0.0217719
0.0218938
0.0220163
0.0221394
0.022263
0.0223872
0.022512
0.0226374
0.0227619
0.0228661
0.0229707
0.0230758
0.0231814
0.0232875
0.0233941
0.0235012
0.0236088
0.0237169
0.0238256
0.0239347
0.0240444
0.0241485
0.0242366
0.0243252
0.0244142
0.0245037
0.0245935
0.0246837
0.0247744
0.0248655
0.024957
0.025049
0.0251414
0.0252343
0.0253127
0.0253846
0.0254569
0.0255296
0.0256025
0.0256759
0.0257495
0.0258236
0.025898
0.0259727
0.0260477
0.0261231
0.0261924
0.0262483
0.0263044
0.0263609
0.0264175
0.0264745
0.0265317
0.0265892
0.0266469
0.0267049
0.0267632
0.0268218
0.0268774
0.0269181
0.0269591
0.0270002
0.0270416
0.0270831
0.0271248
0.0271668
0.0272089
0.0272512
0.0272937
0.0273365
0.0273752
0.0274021
0.0274291
0.0274562
0.0274834
0.0275108
0.0275383
0.027566
0.0275938
0.0276217
0.0276497
0.0276779
0.0276983
0.0277126
0.0277271
0.0277416
0.0277561
0.0277708
0.0277855
0.0278003
0.0278151
0.02783
0.027845
0.0278589
0.0278622
0.0278655
0.0278687
0.027872
0.0278754
0.0278787
0.027882
0.0278854
0.0278888
0.0278922
0.0278956
0.0278907
0.0278843
0.0278778
0.0278714
0.0278649
0.0278583
0.0278518
0.0278452
0.0278385
0.0278319
0.0278252
0.027812
0.0277974
0.0277826
0.0277678
0.0277529
0.0277379
0.0277229
0.0277078
0.0276926
0.0276774
0.027662
0.0276405
0.0276188
0.0275971
0.0275752
0.0275532
0.0275312
0.027509
0.0274867
0.0274644
0.0274419
0.0274174
0.0273901
0.0273627
0.0273351
0.0273074
0.0272796
0.0272516
0.0272236
0.0271953
0.027167
0.0271385
0.0271066
0.0270746
0.0270425
0.0270102
0.0269777
0.0269451
0.0269123
0.0268794
0.0268463
0.0268131
0.026778
0.0267425
0.0267067
0.0266708
0.0266347
0.0265984
0.0265619
0.0265253
0.0264885
0.0264516
0.0264136
0.0263753
0.0263367
0.026298
0.0262591
0.0262201
0.0261808
0.0261414
0.0261017
0.0260619
0.0260217
0.0259813
0.0259408
0.0259
0.0258591
0.0258179
0.0257766
0.025735
0.0256933
0.0256516
0.02561
0.0255682
0.0255261
0.0254839
0.0254415
0.0253989
0.0253561
0.0253131
0.0252699
0.0252275
0.0251849
0.0251422
0.0250992
0.025056
0.0250127
0.0249691
0.0249253
0.0248813
0.0248382
0.0247953
0.0247522
0.0247089
0.0246654
0.0246217
0.0245778
0.0245337
0.0244893
0.024446
0.0244031
0.02436
0.0243166
0.0242731
0.0242294
0.0241855
0.0241413
0.024097
0.024054
0.0240113
0.0239685
0.0239254
0.0238822
0.0238387
0.023795
0.0237511
0.0237071
0.023665
0.0236228
0.0235804
0.0235378
0.023495
0.023452
0.0234087
0.0233653
0.0233227
0.0232812
0.0232396
0.0231977
0.0231557
0.0231134
0.023071
0.0230284
0.0229855
0.0229449
0.022904
0.022863
0.0228218
0.0227804
0.0227388
0.022697
0.022655
0.0226145
0.0225746
0.0225344
0.022494
0.0224535
0.0224128
0.0223718
0.0223307
0.0222908
0.0222517
0.0222124
0.022173
0.0221333
0.0220935
0.0220534
0.0220132
0.0219742
0.021936
0.0218976
0.021859
0.0218203
0.0217814
0.0217423
0.021703
0.0216652
0.0216279
0.0215904
0.0215528
0.0215149
0.0214769
0.0214387
0.0214004
0.0213641
0.0213277
0.0212911
0.0212543
0.0212174
0.0211803
0.021143
0.0211065
0.0210711
0.0210355
0.0209998
0.0209639
0.0209278
0.0208916
0.0208552
0.0208207
0.0207862
0.0207514
0.0207165
0.0206815
0.0206462
0.0206108
0.0205766
0.020543
0.0205092
0.0204753
0.0204412
0.0204069
0.0203725
0.0203388
0.020306
0.0202731
0.0202401
0.0202069
0.0201735
0.0201399
0.0201069
0.020075
0.0200429
0.0200106
0.0199783
0.0199457
0.019913
0.0198808
0.0198495
0.0198182
0.0197867
0.019755
0.0197232
0.0196913
0.01966
0.0196294
0.0195986
0.0195678
0.0195367
0.0195056
0.0194743
0.019444
0.0194139
0.0193838
0.0193535
0.019323
0.0192924
0.0192617
0.0192324
0.0192028
0.0191731
0.0191433
0.0191133
0.0190832
0.0190537
0.0190247
0.0189955
0.0189663
0.0189369
0.0189073
0.0188777
0.0188492
0.0188206
0.0187918
0.0187629
0.0187339
0.0187047
0.0186762
0.018648
0.0186196
0.0185912
0.0185625
0.0185338
0.0185054
0.0184776
0.0184496
0.0184215
0.0183933
0.0183649
0.0183367
0.0183092
0.0182816
0.0182538
0.0182259
0.0181979
0.0181699
0.0181428
0.0181155
0.018088
0.0180605
0.0180328
0.0180051
0.0179782
0.0179512
0.0179241
0.0178968
0.0178694
0.0178421
0.0178154
0.0177886
0.0177617
0.0177347
0.0177075
0.0176806
0.0176541
0.0176275
0.0176008
0.0175739
0.017547
0.0175204
0.0174941
0.0174676
0.017441
0.0174143
0.0173874
0.0173613
0.017335
0.0173086
0.0172821
0.0172555
0.017229
0.0172029
0.0171767
0.0171504
0.0171239
0.0170973
0.0170713
0.0170452
0.017019
0.0169926
0.0169661
0.0169399
0.0169138
0.0168877
0.0168614
0.016835
0.0168086
0.0167825
0.0167564
0.0167301
0.0167038
0.0166772
0.0166511
0.016625
0.0165987
0.0165723
0.0165458
0.0165196
0.0164934
0.0164672
0.0164408
0.0164143
0.0163879
0.0163617
0.0163354
0.016309
0.0162825
0.016256
0.0162298
0.0162034
0.016177
0.0161504
0.0161238
0.0160975
0.016071
0.0160445
0.0160178
0.0159911
0.0159648
0.0159382
0.0159116
0.0158848
0.0158582
0.0158317
0.0158051
0.0157784
0.0157515
0.0157248
0.0156982
0.0156714
0.0156445
0.0156174
0.0155906
0.0155638
0.0155368
0.0155096
0.0154824
0.0154554
0.0154283
0.015401
0.0153737
0.0153463
0.015319
0.0152916
0.015264
0.0152364
0.0152088
0.0151811
0.0151533
0.0151254
0.0150974
0.0150694
0.0150413
0.015013
0.0149846
0.0149562
0.0149277
0.0148991
0.0148704
0.0148415
0.0148127
0.0147837
0.0147546
0.0147254
0.0146962
0.014667
0.0146375
0.014608
0.0145785
0.014549
0.0145193
0.0144895
0.0144597
0.01443
0.0144001
0.0143701
0.01434
0.0143101
0.01428
0.0142498
0.0142195
0.0141893
0.014159
0.0141286
0.014098
0.0140675
0.014037
0.0140063
0.0139755
0.0139447
0.0139138
0.0138828
0.0138516
0.0138204
0.0137892
0.0137578
0.0137262
0.0136946
0.013663
0.0136312
0.0135993
0.0135673
0.0135353
0.0135031
0.0134707
0.0134384
0.013406
0.0133734
0.0133407
0.013308
0.0132752
0.0132422
0.0132092
0.0131761
0.0131429
0.0131096
0.0130761
0.0130426
0.013009
0.0129753
0.0129414
0.0129076
0.0128735
0.0128394
0.0128052
0.0127709
0.0127365
0.0127019
0.0126673
0.0126326
0.0125978
0.0125628
0.0125278
0.0124927
0.0124574
0.012422
0.0123866
0.012351
0.0123152
0.0122795
0.0122436
0.0122075
0.0121713
0.012135
0.0120985
0.0120618
0.0120251
0.0119882
0.0119511
0.0119139
0.0118766
0.0118391
0.0118015
0.0117639
0.0117262
0.0116883
0.0116504
0.0116125
0.0115744
0.0115362
0.011498
0.0114596
0.0114211
0.0113827
0.011344
0.0113052
0.0112664
0.0112274
0.0111882
0.011149
0.0111096
0.0110701
0.0110304
0.0109906
0.0109507
0.0109105
0.0108703
0.0108299
0.0107893
0.0107486
0.0107076
0.0106665
0.0106253
0.0105839
0.0105423
0.0105006
0.0104587
0.0104166
0.0103744
0.0103321
0.0102895
0.0102469
0.0102041
0.0101611
0.0101179
0.0100746
0.0100311
0.00998735
0.0099435
0.00989943
0.0098552
0.00981085
0.00976627
0.00972154
0.00967666
0.00963157
0.00958633
0.00954092
0.00949529
0.0094495
0.00940355
0.00935737
0.00931105
0.00926456
0.00921784
0.00917105
0.00912407
0.00907689
0.00902971
0.0089823
0.00893478
0.00888725
0.0088395
0.0087917
0.00874383
0.00869573
0.00864767
0.00859944
0.008551
0.00850265
0.00845406
0.0084054
0.0083567
0.00830778
0.00825892
0.00820992
0.00816074
0.00811172
0.00806247
0.00801325
0.00796404
0.0079146
0.00786544
0.0078161
0.00776672
0.00771749
0.00766803
0.00761878
0.00756943
0.00752
0.00747079
0.00742135
0.00737219
0.00732295
0.00727365
0.00722462
0.00717535
0.00712634
0.00707721
0.00702806
0.00697903
0.00692978
0.00688082
0.00683167
0.00678258
0.0067335
0.00668429
0.00663527
0.00658603
0.00653698
0.00648779
0.00643863
0.00638952
0.0063403
0.00629137
0.00624221
0.00619344
0.00614453
0.00609587
0.00604732
0.00599885
0.00595079
0.00590259
0.00585515
0.00580749
0.00576056
0.00571358
0.00566711
0.00562082
0.00557487
0.00552934
0.00548397
0.00543927
0.00539457
0.00535082
0.00530689
0.00526419
0.0052213
0.00517962
0.00513788
0.0050973
0.00505682
0.00501742
0.00497828
0.00494017
0.00490245
0.00486572
0.0048295
0.00479427
0.00475962
0.00472595
0.0046929
0.00466085
0.0046294
0.00459903
0.00456922
0.00454062
0.00451253
0.00448584
0.00445959
0.00443496
0.00441064
0.00438824
0.00436598
0.00434596
0.00432613
0.00430836
0.00429113
0.00427569
0.00426118
0.00424809
0.00423638
0.0042257
0.0042169
0.00420872
0.00420304
0.00419791
0.0041951
0.00419336
)
;

boundaryField
{
    INLET
    {
        type            cyclic;
    }
    OUTLET
    {
        type            cyclic;
    }
    CENTER
    {
        type            symmetryPlane;
    }
    WALL
    {
        type            calculated;
        value           uniform 2e-10;
    }
    frontAndBackPlanes
    {
        type            empty;
    }
}


// ************************************************************************* //
