/*--------------------------------*- C++ -*----------------------------------*\
| =========                 |                                                 |
| \\      /  F ield         | OpenFOAM: The Open Source CFD Toolbox           |
|  \\    /   O peration     | Version:  v1806                                 |
|   \\  /    A nd           | Web:      www.OpenFOAM.com                      |
|    \\/     M anipulation  |                                                 |
\*---------------------------------------------------------------------------*/
FoamFile
{
    version     2.0;
    format      ascii;
    class       volScalarField;
    location    "10000";
    object      nutL_DNS;
}
// * * * * * * * * * * * * * * * * * * * * * * * * * * * * * * * * * * * * * //

dimensions      [0 2 -1 0 0 0 0];


internalField   nonuniform List<scalar> 
1025
(
1e-12
3.95947e-12
2.12868e-11
4.42211e-11
1.08653e-10
1.94344e-10
2.80448e-10
4.54891e-10
7.11573e-10
9.69431e-10
1.22856e-09
1.5176e-09
2.17716e-09
2.83965e-09
3.50544e-09
4.17429e-09
4.84626e-09
5.6586e-09
7.17214e-09
8.69205e-09
1.02189e-08
1.17529e-08
1.32944e-08
1.48429e-08
1.64017e-08
1.92364e-08
2.23957e-08
2.55673e-08
2.87546e-08
3.19574e-08
3.51758e-08
3.84074e-08
4.16572e-08
4.53177e-08
5.13758e-08
5.74465e-08
6.35464e-08
6.96752e-08
7.58336e-08
8.20191e-08
8.82352e-08
9.44787e-08
1.00777e-07
1.0865e-07
1.1956e-07
1.30472e-07
1.41428e-07
1.5244e-07
1.63509e-07
1.74623e-07
1.85792e-07
1.9702e-07
2.0829e-07
2.19748e-07
2.35249e-07
2.53811e-07
2.72331e-07
2.90936e-07
3.09637e-07
3.28421e-07
3.47296e-07
3.66257e-07
3.8531e-07
4.04454e-07
4.23683e-07
4.43754e-07
4.73904e-07
5.03735e-07
5.33664e-07
5.63751e-07
5.93963e-07
6.24333e-07
6.54847e-07
6.85507e-07
7.16208e-07
7.4716e-07
7.78299e-07
8.11335e-07
8.55449e-07
9.01645e-07
9.47833e-07
9.9429e-07
1.04066e-06
1.08729e-06
1.13446e-06
1.18187e-06
1.2292e-06
1.2768e-06
1.32469e-06
1.37274e-06
1.42683e-06
1.4998e-06
1.56826e-06
1.63661e-06
1.70438e-06
1.77343e-06
1.84327e-06
1.91253e-06
1.98219e-06
2.05266e-06
2.12356e-06
2.19437e-06
2.26489e-06
2.34804e-06
2.45437e-06
2.55342e-06
2.6511e-06
2.74799e-06
2.84586e-06
2.9443e-06
3.0425e-06
3.14283e-06
3.24219e-06
3.342e-06
3.44318e-06
3.54404e-06
3.65888e-06
3.8043e-06
3.95427e-06
4.08649e-06
4.2206e-06
4.35443e-06
4.48768e-06
4.62411e-06
4.76016e-06
4.89543e-06
5.03258e-06
5.17089e-06
5.30879e-06
5.44825e-06
5.63954e-06
5.87066e-06
6.05851e-06
6.23336e-06
6.41086e-06
6.58945e-06
6.76573e-06
6.94476e-06
7.12642e-06
7.30716e-06
7.48897e-06
7.67222e-06
7.85439e-06
8.05101e-06
8.36171e-06
8.69524e-06
8.92001e-06
9.14644e-06
9.3717e-06
9.59996e-06
9.82992e-06
1.00593e-05
1.02897e-05
1.05236e-05
1.07562e-05
1.09902e-05
1.12256e-05
1.15457e-05
1.20163e-05
1.24269e-05
1.27062e-05
1.29903e-05
1.32719e-05
1.35551e-05
1.38409e-05
1.41281e-05
1.44166e-05
1.4704e-05
1.49978e-05
1.52891e-05
1.55797e-05
1.61234e-05
1.68164e-05
1.72713e-05
1.76105e-05
1.79472e-05
1.82929e-05
1.86369e-05
1.89826e-05
1.93333e-05
1.96811e-05
2.00315e-05
2.03847e-05
2.07386e-05
2.11457e-05
2.20742e-05
2.30148e-05
2.34186e-05
2.38252e-05
2.42246e-05
2.46307e-05
2.50433e-05
2.54473e-05
2.5859e-05
2.62785e-05
2.66942e-05
2.71117e-05
2.75313e-05
2.84531e-05
2.97838e-05
3.06319e-05
3.11018e-05
3.15603e-05
3.20276e-05
3.24964e-05
3.29752e-05
3.34492e-05
3.39251e-05
3.44118e-05
3.48848e-05
3.53674e-05
3.6154e-05
3.79222e-05
3.94749e-05
3.99952e-05
4.05172e-05
4.10513e-05
4.15884e-05
4.21279e-05
4.26605e-05
4.31955e-05
4.37424e-05
4.42823e-05
4.48348e-05
4.54906e-05
4.77999e-05
5.01722e-05
5.07548e-05
5.13397e-05
5.19401e-05
5.25318e-05
5.31245e-05
5.37201e-05
5.43196e-05
5.49224e-05
5.55272e-05
5.61338e-05
5.68963e-05
5.99127e-05
6.29795e-05
6.3622e-05
6.42674e-05
6.49131e-05
6.55628e-05
6.62169e-05
6.68566e-05
6.75155e-05
6.81926e-05
6.88573e-05
6.95094e-05
7.09934e-05
7.4902e-05
7.81541e-05
7.88436e-05
7.95164e-05
8.02205e-05
8.09273e-05
8.16338e-05
8.23435e-05
8.30369e-05
8.37487e-05
8.44804e-05
8.51998e-05
8.86708e-05
9.3725e-05
9.58973e-05
9.66308e-05
9.73496e-05
9.81215e-05
9.88662e-05
9.96132e-05
0.000100365
0.000101126
0.000101891
0.000102645
0.000105001
0.000111042
0.000115714
0.00011645
0.00011723
0.000118035
0.000118802
0.000119583
0.000120379
0.000121199
0.000121981
0.000122766
0.000124671
0.000131889
0.000138465
0.000139257
0.00014009
0.000140873
0.000141699
0.000142546
0.00014334
0.000144138
0.000144979
0.000145848
0.000148607
0.000157253
0.000164383
0.000165217
0.000166055
0.000166946
0.000167793
0.000168594
0.000169425
0.00017031
0.000171172
0.000172015
0.000177929
0.000188374
0.000193735
0.000194611
0.000195464
0.000196288
0.000197145
0.000198039
0.000198936
0.000199837
0.000200651
0.000202488
0.000214167
0.000225818
0.000226661
0.000227476
0.000228369
0.000229329
0.000230188
0.00023102
0.000231919
0.000232791
0.000233708
0.000244973
0.00025925
0.000262413
0.000263343
0.000264132
0.00026507
0.000265923
0.000266814
0.00026771
0.00026861
0.000269514
0.000281824
0.000298117
0.000301983
0.000302964
0.000303877
0.000304685
0.000305568
0.000306455
0.000307276
0.00030821
0.000309186
0.00032607
0.000344775
0.000345641
0.000346422
0.00034738
0.0003483
0.000349225
0.000350063
0.000350906
0.000351755
0.000359581
0.00037932
0.000392588
0.000393352
0.000394165
0.000395027
0.000395892
0.000396874
0.000397704
0.000398428
0.000399464
0.000420477
0.000443456
0.000444453
0.000445126
0.000445852
0.000446768
0.000447641
0.000448518
0.000449494
0.000450288
0.000468948
0.000493902
0.000499434
0.000500147
0.00050114
0.000501915
0.000502695
0.000503697
0.000504485
0.000505056
0.000525634
0.00055306
0.000558854
0.000559642
0.000560437
0.000561029
0.000561885
0.000562746
0.000563609
0.000564728
0.000592013
0.000621442
0.000622044
0.000622949
0.000623617
0.000624288
0.00062532
0.000626059
0.000626739
0.000638603
0.000669127
0.000688987
0.000689419
0.000690209
0.000691003
0.000691512
0.000692313
0.000693117
0.000693698
0.00072429
0.000758214
0.000759666
0.000760578
0.000761087
0.000761732
0.000762445
0.000763158
0.000763815
0.000787703
0.000823311
0.000833828
0.000834208
0.000835053
0.000835443
0.000835837
0.00083669
0.000837681
0.000859987
0.000896918
0.000911205
0.000911283
0.000911375
0.000912059
0.000913274
0.000913963
0.000914139
0.000940813
0.000979855
0.000990841
0.000991181
0.000991673
0.000992169
0.00099259
0.000993016
0.000994029
0.00103191
0.0010725
0.0010732
0.00107323
0.00107401
0.00107421
0.00107448
0.00107534
0.0010914
0.00113185
0.00115749
0.00115726
0.00115777
0.00115837
0.00115831
0.00115899
0.00115893
0.0011985
0.00124225
0.00124339
0.00124287
0.00124334
0.00124381
0.00124412
0.00124452
0.00127294
0.00131571
0.00132935
0.00133024
0.00132942
0.00132967
0.00133073
0.00133001
0.00135447
0.00139781
0.00141627
0.0014161
0.00141602
0.00141684
0.00141676
0.00141677
0.00144215
0.00148498
0.00150273
0.00150337
0.00150392
0.00150349
0.00150325
0.00150396
0.0015345
0.00157753
0.00158946
0.00158991
0.00159046
0.00158976
0.00158907
0.00159082
0.00163303
0.0016759
0.00167615
0.00167651
0.00167543
0.00167446
0.0016749
0.00169356
0.00173674
0.00176052
0.00176058
0.00176054
0.00175929
0.00175944
0.00175967
0.0018007
0.00184473
0.0018446
0.00184455
0.00184441
0.00184287
0.00184282
0.0018692
0.00191216
0.00192666
0.00192632
0.00192589
0.00192417
0.00192547
0.00194273
0.00198303
0.00200706
0.00200632
0.00200617
0.00200601
0.00200432
0.00201695
0.00205962
0.00208601
0.00208471
0.00208471
0.00208307
0.00208338
0.00209651
0.00213671
0.00216272
0.00216057
0.00216112
0.00216023
0.00215907
0.00217703
0.00221615
0.00223593
0.00223526
0.00223536
0.0022337
0.00223204
0.00225923
0.0022988
0.00230866
0.00230832
0.00230715
0.00230514
0.00230755
0.00234533
0.00237946
0.00237879
0.00237999
0.00237743
0.00237574
0.00239356
0.00243073
0.00245007
0.00244791
0.00244575
0.00244457
0.00244529
0.00248267
0.002518
0.00251536
0.00251467
0.00251398
0.0025123
0.0025363
0.00257285
0.00258203
0.00258085
0.00257871
0.00257655
0.0025926
0.00262832
0.00264778
0.00264515
0.00264349
0.00264183
0.00264953
0.00268435
0.00270904
0.00270808
0.00270807
0.00270476
0.00270682
0.00274206
0.00277335
0.00277046
0.00276782
0.0027652
0.00276782
0.00280214
0.00283036
0.00282918
0.00282798
0.00282487
0.00283054
0.00286256
0.00288824
0.00288789
0.00288299
0.00288036
0.00289431
0.00292655
0.00294433
0.00294122
0.00294042
0.00293824
0.00295747
0.00298756
0.0029967
0.00299735
0.00299377
0.0029902
0.00302088
0.00305205
0.0030499
0.00304679
0.00304369
0.00305552
0.00308638
0.00310069
0.00309954
0.00309839
0.00309189
0.00311857
0.00314957
0.00314895
0.00314829
0.0031452
0.00315494
0.0031841
0.00319785
0.00319523
0.00319258
0.00319146
0.00322032
0.00324797
0.00324489
0.00323933
0.00323709
0.00326087
0.00328648
0.00329047
0.00328868
0.00328188
0.00329799
0.00332671
0.00333623
0.00333308
0.00332988
0.00333912
0.00336677
0.0033819
0.00337826
0.00337712
0.00338096
0.00340833
0.00342911
0.00342329
0.00341914
0.00342596
0.00345396
0.0034736
0.003469
0.00346348
0.00346897
0.00349848
0.0035178
0.00351177
0.00350574
0.0035177
0.00354526
0.0035572
0.00355328
0.00354933
0.0035635
0.00358902
0.00359952
0.00359591
0.00358882
0.00361044
0.00363568
0.00363772
0.00363438
0.00363017
0.00365674
0.0036798
0.00367404
0.00366937
0.00367785
0.00370385
0.0037165
0.00371131
0.00370341
0.00372361
0.00375204
0.00375062
0.00374377
0.00374678
0.00377198
0.00378918
0.0037818
0.00377709
0.0037938
0.00381947
0.00382058
0.00381339
0.00381893
0.00384066
0.00385772
0.00385078
0.00384378
0.00386506
0.00388719
0.00388593
0.00387839
0.00388909
0.00391146
0.00391724
0.00391118
0.00390922
0.00393249
0.00394887
0.00393951
0.00393356
0.00395634
0.00397647
0.003968
0.0039595
0.00397556
0.00399789
0.00399792
0.00398885
0.00399618
0.00401795
0.00402093
0.00401198
0.00401948
0.00404143
0.00404387
0.00403505
0.00404202
0.00405998
0.0040681
0.00405942
0.00406376
0.00408252
0.00408732
0.00408017
0.00408464
0.00410285
0.00410987
0.00410073
0.00410736
0.00412505
0.00412722
0.00411816
0.00412976
0.00414967
0.00414567
0.00413599
0.00415039
0.00416821
0.00416358
0.00415329
0.00417107
0.00418825
0.00417737
0.00417471
0.00418848
0.00419781
0.00418754
0.00419029
0.00420398
0.00420423
0.00419604
0.00420911
0.0042227
0.00421451
0.00420896
0.00423291
0.00423197
0.00420929
0.00421617
0.00425097
0.00425942
0.00421133
0.00424465
0.00427982
0.0042321
0.00423931
0.00427354
0.00425192
0.0042586
0.00429357
0.00427184
0.00425061
0.0042846
0.0042906
0.00426867
0.00427412
0.00428042
0.00428649
0.00429128
0.00429691
0.00430287
0.00428016
0.00428445
0.00428983
0.0042947
0.00429911
0.00427586
0.00430686
0.00431163
0.00428916
0.00429282
0.00429624
0.00427296
0.0042763
0.00430668
0.00428268
0.00428533
0.00431559
0.00429182
0.00429427
0.00429674
0.0042724
0.00427474
0.00430365
0.00427878
0.00428012
0.00430859
0.00425663
0.00425778
0.0042855
0.00428677
0.00428775
0.00428848
0.00426188
0.00426149
0.00428855
0.00426251
0.00423595
0.00426124
0.00428716
0.00425996
0.00425847
0.00425737
0.00422993
0.00425386
0.00425181
0.00422391
0.00424812
0.00424557
0.00421593
0.00421262
0.00420984
0.00420673
0.00422848
0.00419834
0.00419436
0.00421605
0.00418513
0.00418033
0.00417477
0.00416884
0.00416337
0.00415756
0.00415094
0.00417005
0.00416322
0.00413016
0.00412289
0.00411519
0.00413258
0.00412417
0.00409013
0.00410655
0.00409689
0.00408695
0.00410262
0.0040669
0.00405603
0.00404497
0.00403359
0.00404744
0.0040352
0.00402217
0.00400938
0.00399648
0.00400741
0.00399325
0.00395384
0.00396342
0.00397333
0.00395795
0.0039414
0.00392441
0.00390752
0.0039149
0.00389674
0.00387822
0.00388444
0.00386493
0.00384499
0.00384974
0.00385421
0.00383308
0.00381173
0.00378958
0.00381631
0.00379328
0.0037692
0.00376973
0.00374467
0.00376932
0.00374289
0.00371561
0.00371303
0.00370992
0.00370647
0.00367633
0.00367062
0.00366504
0.00365831
0.00362515
0.0036168
0.00363369
0.00359781
0.0036132
0.00360238
0.00358974
0.00357679
0.00356272
0.00354779
0.00353192
0.00354254
0.00352463
0.0035332
0.00351309
0.00349184
0.00349759
0.00347392
0.00344927
0.00348121
0.00345385
0.00342477
0.00342456
0.00342274
0.00342012
0.00341641
0.00341199
0.00337329
0.00339802
0.00338919
0.00337837
0.00340162
0.00335206
0.00337194
0.00339237
0.00333419
0.00335093
0.00336715
0.00329846
0.00330983
0.00332087
0.00328402
0.00329036
0.00329502
0.0032982
0.0032989
0.00324051
0.00323223
0.00328387
0.00327103
0.00325285
0.0032279
0.00319565
0.0031533
0.00319516
0.00313191
0.00304785
0.00306826
0.00308882
0.00310986
0.00313025
0.00314998
0.00555859
)
;

boundaryField
{
    INLET
    {
        type            cyclic;
    }
    OUTLET
    {
        type            cyclic;
    }
    CENTER
    {
        type            symmetryPlane;
    }
    WALL
    {
        type            fixedValue;
        value           uniform 0;
    }
    frontAndBackPlanes
    {
        type            empty;
    }
}


// ************************************************************************* //
