/*--------------------------------*- C++ -*----------------------------------*\
| =========                 |                                                 |
| \\      /  F ield         | OpenFOAM: The Open Source CFD Toolbox           |
|  \\    /   O peration     | Version:  v1806                                 |
|   \\  /    A nd           | Web:      www.OpenFOAM.com                      |
|    \\/     M anipulation  |                                                 |
\*---------------------------------------------------------------------------*/
FoamFile
{
    version     2.0;
    format      ascii;
    class       volSymmTensorField;
    location    "10000";
    object      RS_DNS;
}
// * * * * * * * * * * * * * * * * * * * * * * * * * * * * * * * * * * * * * //

dimensions      [0 2 -2 0 0 0 0];


internalField   nonuniform List<symmTensor> 
1025
(
(6.4302e-08 -5.10673e-12 3.73493e-11 9.81572e-15 -6.53994e-15 2.65956e-08)
(5.32771e-07 -1.1695e-10 3.09925e-10 6.18751e-13 -1.49324e-13 2.19192e-07)
(1.53584e-06 -6.28723e-10 8.95239e-10 6.47621e-12 -7.99063e-13 6.27394e-07)
(2.74866e-06 -1.30605e-09 1.60332e-09 1.45546e-11 -1.6586e-12 1.12006e-06)
(4.71954e-06 -3.20884e-09 2.75884e-09 5.3807e-11 -4.05274e-12 1.90869e-06)
(7.08061e-06 -5.73945e-09 4.14466e-09 1.09008e-10 -7.23308e-12 2.84972e-06)
(9.45281e-06 -8.28198e-09 5.53702e-09 1.6447e-10 -1.04284e-11 3.79518e-06)
(1.27213e-05 -1.34325e-08 7.46529e-09 3.30166e-10 -1.683e-11 5.0743e-06)
(1.68248e-05 -2.10113e-08 9.89287e-09 5.98484e-10 -2.62171e-11 6.6643e-06)
(2.09476e-05 -2.86256e-08 1.23318e-08 8.68062e-10 -3.56482e-11 8.26177e-06)
(2.50898e-05 -3.62759e-08 1.47823e-08 1.13891e-09 -4.51238e-11 9.86677e-06)
(2.94247e-05 -4.48043e-08 1.73499e-08 1.46463e-09 -5.5652e-11 1.15394e-05)
(3.6021e-05 -6.42723e-08 2.12952e-08 2.48561e-09 -7.92769e-11 1.39969e-05)
(4.26484e-05 -8.38321e-08 2.5259e-08 3.51141e-09 -1.03013e-10 1.6466e-05)
(4.9307e-05 -1.03484e-07 2.92416e-08 4.54203e-09 -1.26861e-10 1.89467e-05)
(5.59969e-05 -1.23228e-07 3.32429e-08 5.57751e-09 -1.50821e-10 2.14391e-05)
(6.27182e-05 -1.43065e-07 3.72629e-08 6.61785e-09 -1.74894e-10 2.39432e-05)
(7.00027e-05 -1.67015e-07 4.16343e-08 8.01608e-09 -2.03721e-10 2.66264e-05)
(8.00424e-05 -2.11653e-07 4.77274e-08 1.12284e-08 -2.56448e-10 3.01788e-05)
(9.01295e-05 -2.56502e-07 5.38493e-08 1.44558e-08 -3.09423e-10 3.37479e-05)
(0.000100264 -3.01562e-07 5.99999e-08 1.76984e-08 -3.62648e-10 3.73338e-05)
(0.000110446 -3.46834e-07 6.61795e-08 2.09562e-08 -4.16122e-10 4.09366e-05)
(0.000120676 -3.92319e-07 7.23881e-08 2.42294e-08 -4.69848e-10 4.45563e-05)
(0.000130954 -4.38018e-07 7.86261e-08 2.7518e-08 -5.23828e-10 4.81931e-05)
(0.000141281 -4.83933e-07 8.48935e-08 3.08221e-08 -5.78063e-10 5.18471e-05)
(0.000155006 -5.67404e-07 9.33568e-08 3.83506e-08 -6.7377e-10 5.64469e-05)
(0.000169626 -6.60539e-07 1.02398e-07 4.69595e-08 -7.8016e-10 6.12988e-05)
(0.000184316 -7.54114e-07 1.11481e-07 5.56091e-08 -8.87054e-10 6.61736e-05)
(0.000199075 -8.48128e-07 1.20607e-07 6.42993e-08 -9.94449e-10 7.10713e-05)
(0.000213903 -9.42581e-07 1.29776e-07 7.30302e-08 -1.10235e-09 7.59919e-05)
(0.000228801 -1.03749e-06 1.38989e-07 8.18026e-08 -1.21076e-09 8.0936e-05)
(0.000243768 -1.13283e-06 1.48244e-07 9.06157e-08 -1.31967e-09 8.5903e-05)
(0.000258807 -1.22862e-06 1.57543e-07 9.94705e-08 -1.4291e-09 9.08934e-05)
(0.000274623 -1.33596e-06 1.67364e-07 1.09876e-07 -1.55065e-09 9.60746e-05)
(0.000294989 -1.51405e-06 1.80255e-07 1.29889e-07 -1.74629e-09 0.000102337)
(0.00031545 -1.69297e-06 1.93206e-07 1.49995e-07 -1.94283e-09 0.000108628)
(0.000336005 -1.87272e-06 2.06217e-07 1.70195e-07 -2.14028e-09 0.000114949)
(0.000356658 -2.05332e-06 2.1929e-07 1.9049e-07 -2.33867e-09 0.0001213)
(0.00037741 -2.23479e-06 2.32426e-07 2.10882e-07 -2.53801e-09 0.000127681)
(0.000398259 -2.4171e-06 2.45623e-07 2.3137e-07 -2.73828e-09 0.000134091)
(0.000419205 -2.60027e-06 2.58881e-07 2.51954e-07 -2.93949e-09 0.000140532)
(0.000440251 -2.7843e-06 2.72202e-07 2.72635e-07 -3.14165e-09 0.000147004)
(0.000461395 -2.9692e-06 2.85587e-07 2.93414e-07 -3.34476e-09 0.000153505)
(0.000484713 -3.19902e-06 3.00515e-07 3.21179e-07 -3.59226e-09 0.00016044)
(0.000512313 -3.51858e-06 3.18495e-07 3.62945e-07 -3.92834e-09 0.000168216)
(0.000540045 -3.83966e-06 3.3656e-07 4.0491e-07 -4.26602e-09 0.00017603)
(0.000567908 -4.16226e-06 3.54711e-07 4.47073e-07 -4.6053e-09 0.000183881)
(0.000595899 -4.48635e-06 3.72946e-07 4.89431e-07 -4.94615e-09 0.000191767)
(0.000624023 -4.81196e-06 3.91266e-07 5.31988e-07 -5.28859e-09 0.000199691)
(0.00065228 -5.13913e-06 4.09674e-07 5.74749e-07 -5.63268e-09 0.000207653)
(0.000680672 -5.46785e-06 4.2817e-07 6.17712e-07 -5.97839e-09 0.000215652)
(0.000709195 -5.7981e-06 4.46751e-07 6.60874e-07 -6.32571e-09 0.000223689)
(0.000737852 -6.1299e-06 4.65419e-07 7.0424e-07 -6.67467e-09 0.000231763)
(0.000766644 -6.46325e-06 4.84175e-07 7.47809e-07 -7.02525e-09 0.000239876)
(0.000799644 -6.91153e-06 5.06139e-07 8.11232e-07 -7.48247e-09 0.000248649)
(0.000836073 -7.45292e-06 5.30711e-07 8.90726e-07 -8.02612e-09 0.000257964)
(0.000872674 -7.99687e-06 5.554e-07 9.70596e-07 -8.57233e-09 0.000267324)
(0.000909443 -8.54332e-06 5.80202e-07 1.05083e-06 -9.12106e-09 0.000276727)
(0.000946384 -9.09232e-06 6.0512e-07 1.13145e-06 -9.67236e-09 0.000286173)
(0.000983501 -9.64394e-06 6.30157e-07 1.21244e-06 -1.02263e-08 0.000295665)
(0.00102079 -1.01982e-05 6.55312e-07 1.29382e-06 -1.07828e-08 0.000305201)
(0.00105826 -1.0755e-05 6.80585e-07 1.37558e-06 -1.1342e-08 0.000314782)
(0.00109591 -1.13145e-05 7.05978e-07 1.45773e-06 -1.19038e-08 0.000324409)
(0.00113373 -1.18765e-05 7.31488e-07 1.54026e-06 -1.24682e-08 0.00033408)
(0.00117172 -1.24412e-05 7.5712e-07 1.62318e-06 -1.30352e-08 0.000343797)
(0.0012099 -1.30086e-05 7.82872e-07 1.70649e-06 -1.3605e-08 0.00035356)
(0.00125638 -1.38673e-05 8.15513e-07 1.84426e-06 -1.44285e-08 0.000364301)
(0.00130334 -1.47393e-05 8.48524e-07 1.98441e-06 -1.52638e-08 0.000375122)
(0.00135052 -1.56154e-05 8.81692e-07 2.12522e-06 -1.61032e-08 0.000385994)
(0.00139793 -1.64956e-05 9.15016e-07 2.2667e-06 -1.69465e-08 0.000396918)
(0.00144555 -1.738e-05 9.48498e-07 2.40885e-06 -1.77938e-08 0.000407893)
(0.0014934 -1.82685e-05 9.82136e-07 2.55166e-06 -1.86451e-08 0.00041892)
(0.00154148 -1.91612e-05 1.01593e-06 2.69514e-06 -1.95003e-08 0.000429998)
(0.00158978 -2.00582e-05 1.04989e-06 2.83931e-06 -2.03596e-08 0.000441129)
(0.00163831 -2.09593e-05 1.084e-06 2.98414e-06 -2.12229e-08 0.000452312)
(0.00168707 -2.18646e-05 1.11828e-06 3.12966e-06 -2.20903e-08 0.000463547)
(0.00173605 -2.27743e-05 1.15271e-06 3.27586e-06 -2.29618e-08 0.000474836)
(0.00178527 -2.36882e-05 1.18732e-06 3.42276e-06 -2.38374e-08 0.000486178)
(0.00184142 -2.49054e-05 1.22824e-06 3.63002e-06 -2.49622e-08 0.00049811)
(0.00190035 -2.62411e-05 1.27169e-06 3.86076e-06 -2.61846e-08 0.000510301)
(0.00195956 -2.7583e-05 1.31534e-06 4.09259e-06 -2.74128e-08 0.000522549)
(0.00201904 -2.89312e-05 1.35919e-06 4.3255e-06 -2.86468e-08 0.000534854)
(0.00207881 -3.02858e-05 1.40325e-06 4.55952e-06 -2.98865e-08 0.000547218)
(0.00213886 -3.16468e-05 1.44752e-06 4.79463e-06 -3.11322e-08 0.00055964)
(0.0021992 -3.30142e-05 1.492e-06 5.03086e-06 -3.23837e-08 0.000572121)
(0.00225981 -3.4388e-05 1.53668e-06 5.26819e-06 -3.3641e-08 0.000584659)
(0.00232071 -3.57683e-05 1.58158e-06 5.50664e-06 -3.49043e-08 0.000597257)
(0.0023819 -3.7155e-05 1.62668e-06 5.74621e-06 -3.61735e-08 0.000609914)
(0.00244337 -3.85484e-05 1.672e-06 5.98691e-06 -3.74488e-08 0.000622631)
(0.00250514 -3.99483e-05 1.71754e-06 6.22876e-06 -3.873e-08 0.000635409)
(0.0025672 -4.13547e-05 1.76328e-06 6.47172e-06 -4.00172e-08 0.000648245)
(0.00263888 -4.32902e-05 1.81891e-06 6.82655e-06 -4.17168e-08 0.000661599)
(0.00271119 -4.5251e-05 1.87509e-06 7.18649e-06 -4.34371e-08 0.00067503)
(0.00278385 -4.7221e-05 1.93155e-06 7.54814e-06 -4.51655e-08 0.000688525)
(0.00285684 -4.92004e-05 1.98827e-06 7.91149e-06 -4.6902e-08 0.000702083)
(0.00293019 -5.11892e-05 2.04526e-06 8.27657e-06 -4.86468e-08 0.000715706)
(0.00300387 -5.31873e-05 2.10251e-06 8.64335e-06 -5.03998e-08 0.000729393)
(0.0030779 -5.51946e-05 2.16003e-06 9.01183e-06 -5.21609e-08 0.000743143)
(0.00315229 -5.72115e-05 2.21783e-06 9.38208e-06 -5.39304e-08 0.000756959)
(0.00322702 -5.92379e-05 2.27589e-06 9.75406e-06 -5.57081e-08 0.000770839)
(0.00330209 -6.12737e-05 2.33423e-06 1.01278e-05 -5.74942e-08 0.000784784)
(0.00337753 -6.33191e-05 2.39284e-06 1.05032e-05 -5.92887e-08 0.000798795)
(0.00345332 -6.53743e-05 2.45173e-06 1.08805e-05 -6.10918e-08 0.000812873)
(0.00352947 -6.74391e-05 2.5109e-06 1.12595e-05 -6.29032e-08 0.000827016)
(0.0036137 -7.00636e-05 2.57953e-06 1.17649e-05 -6.51337e-08 0.000841374)
(0.00369996 -7.28161e-05 2.6504e-06 1.22988e-05 -6.7461e-08 0.000855831)
(0.00378662 -7.55813e-05 2.72161e-06 1.28352e-05 -6.9799e-08 0.000870355)
(0.00387369 -7.83598e-05 2.79316e-06 1.33742e-05 -7.21483e-08 0.000884948)
(0.00396118 -8.11515e-05 2.86504e-06 1.39157e-05 -7.45087e-08 0.000899611)
(0.00404907 -8.3956e-05 2.93726e-06 1.44597e-05 -7.688e-08 0.000914341)
(0.00413738 -8.67739e-05 3.00982e-06 1.50063e-05 -7.92626e-08 0.000929141)
(0.0042261 -8.96049e-05 3.08272e-06 1.55555e-05 -8.16563e-08 0.000944011)
(0.00431523 -9.24492e-05 3.15597e-06 1.61072e-05 -8.40613e-08 0.00095895)
(0.0044048 -9.53071e-05 3.22956e-06 1.66616e-05 -8.64777e-08 0.00097396)
(0.00449478 -9.81784e-05 3.30349e-06 1.72185e-05 -8.89054e-08 0.000989041)
(0.00458518 -0.000101063 3.37778e-06 1.77781e-05 -9.13445e-08 0.00100419)
(0.00467601 -0.000103962 3.45241e-06 1.83403e-05 -9.37952e-08 0.00101942)
(0.00477058 -0.000107189 3.53208e-06 1.89826e-05 -9.64863e-08 0.00103466)
(0.00487044 -0.00011089 3.61896e-06 1.97408e-05 -9.95239e-08 0.00104991)
(0.00497076 -0.000114608 3.70624e-06 2.05025e-05 -1.02576e-07 0.00106524)
(0.00507156 -0.000118344 3.79393e-06 2.12678e-05 -1.05642e-07 0.00108063)
(0.00517283 -0.000122098 3.88204e-06 2.20367e-05 -1.08722e-07 0.0010961)
(0.00527458 -0.000125869 3.97056e-06 2.28092e-05 -1.11818e-07 0.00111164)
(0.00537681 -0.000129659 4.0595e-06 2.35854e-05 -1.14927e-07 0.00112726)
(0.00547952 -0.000133466 4.14886e-06 2.43652e-05 -1.18052e-07 0.00114294)
(0.00558272 -0.000137291 4.23865e-06 2.51488e-05 -1.21191e-07 0.00115871)
(0.0056864 -0.000141134 4.32885e-06 2.59359e-05 -1.24345e-07 0.00117454)
(0.00579056 -0.000144994 4.41947e-06 2.67268e-05 -1.27513e-07 0.00119045)
(0.00589522 -0.000148874 4.51052e-06 2.75214e-05 -1.30697e-07 0.00120644)
(0.00600037 -0.000152771 4.60201e-06 2.83198e-05 -1.33896e-07 0.0012225)
(0.00610601 -0.000156687 4.69391e-06 2.91218e-05 -1.37109e-07 0.00123863)
(0.0062169 -0.000161304 4.79498e-06 3.01147e-05 -1.40831e-07 0.00125453)
(0.00632945 -0.000166103 4.89858e-06 3.11562e-05 -1.44686e-07 0.00127043)
(0.00644252 -0.000170924 5.00266e-06 3.22026e-05 -1.48559e-07 0.00128641)
(0.00655612 -0.000175769 5.10723e-06 3.32538e-05 -1.5245e-07 0.00130246)
(0.00667025 -0.000180636 5.21229e-06 3.431e-05 -1.5636e-07 0.00131858)
(0.00678492 -0.000185525 5.31785e-06 3.53712e-05 -1.60287e-07 0.00133478)
(0.00690013 -0.000190438 5.4239e-06 3.64374e-05 -1.64234e-07 0.00135106)
(0.00701589 -0.000195375 5.53046e-06 3.75086e-05 -1.68199e-07 0.00136742)
(0.00713219 -0.000200334 5.63751e-06 3.85849e-05 -1.72183e-07 0.00138385)
(0.00724903 -0.000205316 5.74507e-06 3.96662e-05 -1.76185e-07 0.00140036)
(0.00736642 -0.000210323 5.85313e-06 4.07526e-05 -1.80206e-07 0.00141694)
(0.00748438 -0.000215352 5.96171e-06 4.18441e-05 -1.84247e-07 0.00143361)
(0.00760288 -0.000220406 6.0708e-06 4.29408e-05 -1.88306e-07 0.00145035)
(0.00772224 -0.000225583 6.1814e-06 4.40742e-05 -1.92457e-07 0.0014671)
(0.0078444 -0.000231538 6.30012e-06 4.54519e-05 -1.9718e-07 0.00148338)
(0.00796713 -0.000237521 6.41939e-06 4.68361e-05 -2.01925e-07 0.00149974)
(0.00809044 -0.000243532 6.53923e-06 4.82267e-05 -2.06693e-07 0.00151617)
(0.00821433 -0.000249572 6.65964e-06 4.96241e-05 -2.11483e-07 0.00153268)
(0.00833881 -0.00025564 6.78061e-06 5.10279e-05 -2.16296e-07 0.00154927)
(0.00846386 -0.000261736 6.90215e-06 5.24383e-05 -2.21131e-07 0.00156594)
(0.00858951 -0.000267862 7.02426e-06 5.38554e-05 -2.25989e-07 0.00158269)
(0.00871575 -0.000274016 7.14695e-06 5.52792e-05 -2.3087e-07 0.00159951)
(0.00884259 -0.0002802 7.27022e-06 5.67097e-05 -2.35774e-07 0.00161642)
(0.00897003 -0.000286412 7.39407e-06 5.81469e-05 -2.40701e-07 0.0016334)
(0.00909806 -0.000292653 7.5185e-06 5.95908e-05 -2.45651e-07 0.00165046)
(0.00922669 -0.000298924 7.64351e-06 6.10416e-05 -2.50624e-07 0.00166761)
(0.00935592 -0.000305225 7.76911e-06 6.24991e-05 -2.55621e-07 0.00168483)
(0.00948512 -0.000311868 7.89727e-06 6.40851e-05 -2.60879e-07 0.00170182)
(0.00961392 -0.000319023 8.02906e-06 6.58643e-05 -2.66525e-07 0.0017184)
(0.00974332 -0.000326211 8.16146e-06 6.76519e-05 -2.72198e-07 0.00173506)
(0.00987334 -0.000333434 8.29449e-06 6.9448e-05 -2.77898e-07 0.0017518)
(0.010004 -0.00034069 8.42815e-06 7.12525e-05 -2.83624e-07 0.00176862)
(0.0101352 -0.00034798 8.56243e-06 7.30654e-05 -2.89377e-07 0.00178551)
(0.0102671 -0.000355304 8.69734e-06 7.48868e-05 -2.95158e-07 0.00180249)
(0.0103996 -0.000362663 8.83289e-06 7.6717e-05 -3.00965e-07 0.00181954)
(0.0105327 -0.000370057 8.96908e-06 7.85556e-05 -3.068e-07 0.00183668)
(0.0106664 -0.000377486 9.10591e-06 8.04029e-05 -3.12663e-07 0.00185389)
(0.0108008 -0.000384949 9.24338e-06 8.2259e-05 -3.18553e-07 0.00187119)
(0.0109357 -0.000392446 9.38147e-06 8.41234e-05 -3.24469e-07 0.00188857)
(0.0110713 -0.000399978 9.5202e-06 8.59964e-05 -3.30413e-07 0.00190602)
(0.0112076 -0.000407551 9.65969e-06 8.78797e-05 -3.3639e-07 0.00192358)
(0.0113402 -0.000415624 9.80003e-06 9.00113e-05 -3.42763e-07 0.00194055)
(0.0114714 -0.000423924 9.94102e-06 9.22516e-05 -3.49316e-07 0.00195731)
(0.0116032 -0.000432263 1.00827e-05 9.45022e-05 -3.55899e-07 0.00197416)
(0.0117356 -0.000440644 1.0225e-05 9.67645e-05 -3.62516e-07 0.00199108)
(0.0118687 -0.000449064 1.0368e-05 9.90371e-05 -3.69164e-07 0.00200809)
(0.0120024 -0.000457522 1.05117e-05 0.00010132 -3.75841e-07 0.00202518)
(0.0121368 -0.000466024 1.06561e-05 0.000103615 -3.82553e-07 0.00204235)
(0.0122718 -0.000474563 1.08012e-05 0.00010592 -3.89295e-07 0.0020596)
(0.0124074 -0.000483141 1.09469e-05 0.000108235 -3.96068e-07 0.00207692)
(0.0125436 -0.000491758 1.10932e-05 0.000110561 -4.0287e-07 0.00209433)
(0.0126805 -0.000500417 1.12403e-05 0.000112898 -4.09707e-07 0.00211182)
(0.012818 -0.00050912 1.13881e-05 0.000115247 -4.16578e-07 0.0021294)
(0.0129562 -0.000517861 1.15366e-05 0.000117606 -4.23479e-07 0.00214705)
(0.013094 -0.000526687 1.16854e-05 0.000120011 -4.30449e-07 0.0021647)
(0.0132226 -0.000535973 1.18304e-05 0.000122759 -4.37796e-07 0.0021815)
(0.0133517 -0.000545298 1.19761e-05 0.000125519 -4.45174e-07 0.00219838)
(0.0134814 -0.000554664 1.21223e-05 0.000128292 -4.52585e-07 0.00221532)
(0.0136117 -0.000564075 1.22693e-05 0.000131077 -4.60032e-07 0.00223235)
(0.0137427 -0.000573537 1.24171e-05 0.000133878 -4.67518e-07 0.00224948)
(0.0138743 -0.000583039 1.25655e-05 0.00013669 -4.75037e-07 0.00226667)
(0.0140065 -0.000592586 1.27147e-05 0.000139516 -4.82591e-07 0.00228395)
(0.0141393 -0.000602179 1.28645e-05 0.000142356 -4.90182e-07 0.00230131)
(0.0142728 -0.000611817 1.3015e-05 0.000145208 -4.97808e-07 0.00231875)
(0.0144069 -0.000621501 1.31663e-05 0.000148075 -5.0547e-07 0.00233627)
(0.0145416 -0.000631229 1.33182e-05 0.000150954 -5.13168e-07 0.00235388)
(0.0146769 -0.000641004 1.34709e-05 0.000153847 -5.20902e-07 0.00237156)
(0.0148129 -0.000650823 1.36243e-05 0.000156754 -5.28671e-07 0.00238933)
(0.0149406 -0.000660816 1.37726e-05 0.000159904 -5.36579e-07 0.00240655)
(0.0150627 -0.000670934 1.39175e-05 0.000163222 -5.44586e-07 0.00242339)
(0.0151853 -0.000681098 1.40631e-05 0.000166556 -5.52629e-07 0.00244032)
(0.0153086 -0.000691313 1.42094e-05 0.000169906 -5.60713e-07 0.00245733)
(0.0154325 -0.00070158 1.43564e-05 0.000173274 -5.68838e-07 0.00247442)
(0.0155569 -0.000711894 1.45042e-05 0.000176657 -5.76999e-07 0.00249159)
(0.015682 -0.000722253 1.46526e-05 0.000180054 -5.85197e-07 0.00250884)
(0.0158076 -0.000732664 1.48017e-05 0.000183469 -5.93436e-07 0.00252618)
(0.0159338 -0.000743122 1.49515e-05 0.000186899 -6.01711e-07 0.00254359)
(0.0160606 -0.00075363 1.5102e-05 0.000190346 -6.10028e-07 0.00256109)
(0.016188 -0.000764191 1.52532e-05 0.000193809 -6.18385e-07 0.00257867)
(0.016316 -0.000774797 1.54052e-05 0.000197288 -6.26778e-07 0.00259633)
(0.0164446 -0.000785455 1.55578e-05 0.000200784 -6.35212e-07 0.00261408)
(0.0165693 -0.000796143 1.57077e-05 0.000204391 -6.43658e-07 0.00263163)
(0.0166807 -0.000806828 1.58477e-05 0.000208313 -6.52066e-07 0.00264842)
(0.0167927 -0.000817569 1.59885e-05 0.000212256 -6.60518e-07 0.00266529)
(0.0169051 -0.000828356 1.61298e-05 0.000216216 -6.69006e-07 0.00268223)
(0.017018 -0.00083919 1.62718e-05 0.000220193 -6.7753e-07 0.00269925)
(0.0171316 -0.000850079 1.64144e-05 0.000224191 -6.86099e-07 0.00271636)
(0.0172456 -0.00086102 1.65578e-05 0.000228207 -6.94708e-07 0.00273354)
(0.0173602 -0.000872012 1.67018e-05 0.000232242 -7.03357e-07 0.00275081)
(0.0174754 -0.00088306 1.68466e-05 0.000236298 -7.1205e-07 0.00276816)
(0.017591 -0.000894154 1.69919e-05 0.000240371 -7.2078e-07 0.00278559)
(0.0177072 -0.000905299 1.7138e-05 0.000244462 -7.2955e-07 0.0028031)
(0.017824 -0.000916501 1.72847e-05 0.000248574 -7.38364e-07 0.00282069)
(0.0179413 -0.000927753 1.74322e-05 0.000252705 -7.47218e-07 0.00283837)
(0.0180579 -0.000939041 1.75793e-05 0.00025688 -7.56092e-07 0.00285606)
(0.0181557 -0.00095005 1.77108e-05 0.000261446 -7.64627e-07 0.00287275)
(0.018254 -0.000961109 1.78428e-05 0.000266031 -7.73201e-07 0.00288951)
(0.0183528 -0.000972223 1.79755e-05 0.00027064 -7.81817e-07 0.00290635)
(0.018452 -0.00098339 1.81089e-05 0.000275271 -7.90475e-07 0.00292328)
(0.0185517 -0.000994608 1.82428e-05 0.000279922 -7.99171e-07 0.00294028)
(0.0186518 -0.00100587 1.83773e-05 0.000284594 -8.07906e-07 0.00295735)
(0.0187525 -0.0010172 1.85126e-05 0.000289291 -8.16687e-07 0.00297452)
(0.0188536 -0.00102858 1.86485e-05 0.00029401 -8.2551e-07 0.00299177)
(0.0189552 -0.00104001 1.87849e-05 0.00029875 -8.34371e-07 0.00300909)
(0.0190572 -0.00105149 1.8922e-05 0.00030351 -8.43271e-07 0.00302649)
(0.0191597 -0.00106303 1.90597e-05 0.000308293 -8.52213e-07 0.00304397)
(0.0192627 -0.00107462 1.91982e-05 0.000313101 -8.61202e-07 0.00306154)
(0.0193649 -0.00108623 1.9336e-05 0.000317956 -8.70187e-07 0.00307912)
(0.0194472 -0.00109732 1.94556e-05 0.000323194 -8.78557e-07 0.00309566)
(0.01953 -0.00110847 1.95757e-05 0.000328456 -8.86965e-07 0.00311228)
(0.0196131 -0.00111967 1.96964e-05 0.000333742 -8.95413e-07 0.00312897)
(0.0196966 -0.00113091 1.98176e-05 0.000339053 -9.03899e-07 0.00314574)
(0.0197805 -0.00114222 1.99395e-05 0.00034439 -9.12428e-07 0.00316259)
(0.0198649 -0.00115357 2.00619e-05 0.000349752 -9.20996e-07 0.00317952)
(0.0199496 -0.00116498 2.01849e-05 0.000355138 -9.29603e-07 0.00319653)
(0.0200347 -0.00117645 2.03085e-05 0.000360551 -9.38253e-07 0.00321362)
(0.0201202 -0.00118796 2.04326e-05 0.000365988 -9.46941e-07 0.00323079)
(0.0202061 -0.00119953 2.05573e-05 0.000371452 -9.55672e-07 0.00324804)
(0.0202924 -0.00121116 2.06826e-05 0.00037694 -9.64442e-07 0.00326537)
(0.0203791 -0.00122284 2.08085e-05 0.000382455 -9.73255e-07 0.00328279)
(0.0204604 -0.00123435 2.09289e-05 0.000388095 -9.81847e-07 0.00329995)
(0.0205263 -0.00124531 2.10333e-05 0.000394024 -9.89766e-07 0.00331627)
(0.0205925 -0.00125632 2.11381e-05 0.000399981 -9.97722e-07 0.00333268)
(0.0206591 -0.00126738 2.12435e-05 0.000405969 -1.00572e-06 0.00334917)
(0.0207259 -0.0012785 2.13494e-05 0.000411986 -1.01376e-06 0.00336574)
(0.0207931 -0.00128966 2.14557e-05 0.000418028 -1.02183e-06 0.00338238)
(0.0208605 -0.00130088 2.15626e-05 0.000424099 -1.02993e-06 0.0033991)
(0.0209283 -0.00131215 2.16699e-05 0.000430198 -1.03808e-06 0.00341589)
(0.0209964 -0.00132348 2.17778e-05 0.000436326 -1.04626e-06 0.00343277)
(0.0210648 -0.00133485 2.18861e-05 0.000442482 -1.05449e-06 0.00344972)
(0.0211336 -0.00134628 2.1995e-05 0.000448668 -1.06275e-06 0.00346675)
(0.0212027 -0.00135777 2.21044e-05 0.000454886 -1.07105e-06 0.00348387)
(0.0212721 -0.00136931 2.22143e-05 0.000461131 -1.07939e-06 0.00350107)
(0.0213276 -0.00138022 2.23075e-05 0.000467631 -1.08694e-06 0.00351746)
(0.0213769 -0.00139086 2.23933e-05 0.000474264 -1.09415e-06 0.0035335)
(0.0214264 -0.00140155 2.24796e-05 0.000480928 -1.10139e-06 0.00354963)
(0.0214761 -0.00141229 2.25662e-05 0.000487625 -1.10867e-06 0.00356583)
(0.0215261 -0.00142308 2.26533e-05 0.000494352 -1.11598e-06 0.00358211)
(0.0215763 -0.00143393 2.27407e-05 0.000501111 -1.12332e-06 0.00359846)
(0.0216267 -0.00144482 2.28286e-05 0.000507903 -1.1307e-06 0.0036149)
(0.0216774 -0.00145577 2.29169e-05 0.000514727 -1.13811e-06 0.00363141)
(0.0217284 -0.00146677 2.30056e-05 0.000521583 -1.14556e-06 0.003648)
(0.0217795 -0.00147781 2.30947e-05 0.000528469 -1.15304e-06 0.00366466)
(0.0218309 -0.00148891 2.31842e-05 0.000535387 -1.16056e-06 0.0036814)
(0.0218826 -0.00150006 2.32741e-05 0.00054234 -1.16811e-06 0.00369822)
(0.0219283 -0.00151091 2.3356e-05 0.000549416 -1.17525e-06 0.00371469)
(0.0219613 -0.00152104 2.34201e-05 0.000556717 -1.18145e-06 0.0037303)
(0.0219944 -0.00153123 2.34846e-05 0.000564055 -1.18768e-06 0.00374599)
(0.0220277 -0.00154145 2.35494e-05 0.000571426 -1.19395e-06 0.00376175)
(0.0220611 -0.00155173 2.36144e-05 0.00057883 -1.20024e-06 0.00377758)
(0.0220947 -0.00156206 2.36798e-05 0.000586271 -1.20656e-06 0.00379349)
(0.0221285 -0.00157243 2.37455e-05 0.000593748 -1.21291e-06 0.00380948)
(0.0221624 -0.00158286 2.38115e-05 0.000601259 -1.2193e-06 0.00382554)
(0.0221964 -0.00159333 2.38778e-05 0.000608803 -1.22571e-06 0.00384168)
(0.0222307 -0.00160385 2.39444e-05 0.000616384 -1.23215e-06 0.00385789)
(0.022265 -0.00161442 2.40113e-05 0.000624001 -1.23862e-06 0.00387417)
(0.0222996 -0.00162504 2.40785e-05 0.000631654 -1.24512e-06 0.00389054)
(0.0223313 -0.0016355 2.41413e-05 0.000639383 -1.25137e-06 0.00390673)
(0.022349 -0.00164502 2.41822e-05 0.000647334 -1.25632e-06 0.00392182)
(0.0223668 -0.0016546 2.42232e-05 0.000655322 -1.26129e-06 0.00393698)
(0.0223847 -0.00166421 2.42644e-05 0.000663348 -1.26629e-06 0.00395221)
(0.0224026 -0.00167387 2.43059e-05 0.000671411 -1.2713e-06 0.00396751)
(0.0224207 -0.00168358 2.43475e-05 0.000679514 -1.27635e-06 0.00398289)
(0.0224388 -0.00169334 2.43893e-05 0.000687654 -1.28142e-06 0.00399834)
(0.0224571 -0.00170314 2.44314e-05 0.000695831 -1.28651e-06 0.00401386)
(0.0224754 -0.00171298 2.44736e-05 0.000704049 -1.29162e-06 0.00402945)
(0.0224938 -0.00172287 2.4516e-05 0.000712303 -1.29676e-06 0.00404512)
(0.0225123 -0.00173281 2.45586e-05 0.000720598 -1.30192e-06 0.00406086)
(0.0225308 -0.0017428 2.46014e-05 0.000728932 -1.30711e-06 0.00407668)
(0.0225456 -0.00175251 2.46377e-05 0.000737345 -1.31187e-06 0.00409218)
(0.0225495 -0.00176138 2.46547e-05 0.000745914 -1.31534e-06 0.00410666)
(0.0225533 -0.00177028 2.46718e-05 0.000754524 -1.31883e-06 0.00412121)
(0.0225572 -0.00177922 2.4689e-05 0.000763175 -1.32234e-06 0.00413583)
(0.0225611 -0.00178821 2.47063e-05 0.000771866 -1.32586e-06 0.00415051)
(0.022565 -0.00179724 2.47236e-05 0.000780599 -1.3294e-06 0.00416526)
(0.0225689 -0.00180631 2.4741e-05 0.000789371 -1.33296e-06 0.00418009)
(0.0225728 -0.00181542 2.47585e-05 0.000798185 -1.33653e-06 0.00419498)
(0.0225768 -0.00182458 2.47761e-05 0.000807042 -1.34012e-06 0.00420994)
(0.0225808 -0.00183378 2.47938e-05 0.00081594 -1.34373e-06 0.00422498)
(0.0225848 -0.00184302 2.48115e-05 0.000824878 -1.34735e-06 0.00424008)
(0.0225888 -0.00185231 2.48294e-05 0.000833859 -1.35099e-06 0.00425525)
(0.0225857 -0.00186096 2.48337e-05 0.00084293 -1.35362e-06 0.00426964)
(0.0225771 -0.00186913 2.48274e-05 0.000852077 -1.35548e-06 0.00428343)
(0.0225685 -0.00187733 2.48211e-05 0.000861268 -1.35734e-06 0.00429728)
(0.0225599 -0.00188558 2.48148e-05 0.000870503 -1.35921e-06 0.0043112)
(0.0225512 -0.00189386 2.48084e-05 0.000879778 -1.36109e-06 0.00432518)
(0.0225424 -0.00190218 2.4802e-05 0.0008891 -1.36297e-06 0.00433923)
(0.0225337 -0.00191055 2.47956e-05 0.000898466 -1.36487e-06 0.00435334)
(0.0225249 -0.00191895 2.47892e-05 0.000907876 -1.36677e-06 0.00436752)
(0.022516 -0.00192739 2.47827e-05 0.000917329 -1.36869e-06 0.00438177)
(0.0225071 -0.00193587 2.47762e-05 0.000926827 -1.37061e-06 0.00439609)
(0.0224982 -0.00194439 2.47696e-05 0.000936371 -1.37254e-06 0.00441047)
(0.0224882 -0.00195284 2.47611e-05 0.000945958 -1.37432e-06 0.00442477)
(0.0224689 -0.00196027 2.47336e-05 0.000955587 -1.3745e-06 0.00443773)
(0.0224494 -0.00196774 2.47059e-05 0.000965263 -1.37468e-06 0.00445075)
(0.0224299 -0.00197525 2.46781e-05 0.000974985 -1.37486e-06 0.00446384)
(0.0224103 -0.00198279 2.46502e-05 0.000984751 -1.37504e-06 0.00447698)
(0.0223906 -0.00199037 2.46221e-05 0.000994564 -1.37522e-06 0.00449019)
(0.0223708 -0.00199798 2.45939e-05 0.00100443 -1.3754e-06 0.00450346)
(0.0223509 -0.00200563 2.45655e-05 0.00101433 -1.37558e-06 0.00451679)
(0.0223309 -0.00201331 2.45371e-05 0.00102428 -1.37577e-06 0.00453019)
(0.0223108 -0.00202104 2.45085e-05 0.00103428 -1.37595e-06 0.00454365)
(0.0222907 -0.00202879 2.44797e-05 0.00104433 -1.37614e-06 0.00455717)
(0.0222704 -0.00203658 2.44509e-05 0.00105442 -1.37632e-06 0.00457075)
(0.0222431 -0.00204348 2.4408e-05 0.00106449 -1.3751e-06 0.00458307)
(0.0222145 -0.00205025 2.43624e-05 0.00107459 -1.37362e-06 0.00459522)
(0.0221857 -0.00205704 2.43166e-05 0.00108473 -1.37213e-06 0.00460741)
(0.0221568 -0.00206386 2.42705e-05 0.00109493 -1.37064e-06 0.00461967)
(0.0221277 -0.00207072 2.42243e-05 0.00110517 -1.36913e-06 0.00463198)
(0.0220985 -0.00207761 2.41778e-05 0.00111546 -1.36762e-06 0.00464435)
(0.0220692 -0.00208453 2.41311e-05 0.0011258 -1.36611e-06 0.00465678)
(0.0220397 -0.00209148 2.40842e-05 0.00113619 -1.36458e-06 0.00466927)
(0.0220101 -0.00209847 2.4037e-05 0.00114663 -1.36305e-06 0.00468182)
(0.0219803 -0.00210549 2.39897e-05 0.00115711 -1.36151e-06 0.00469442)
(0.0219505 -0.00211254 2.39421e-05 0.00116765 -1.35997e-06 0.00470709)
(0.0219154 -0.00211879 2.38849e-05 0.00117809 -1.35712e-06 0.00471854)
(0.021879 -0.00212487 2.38252e-05 0.00118854 -1.35397e-06 0.00472977)
(0.0218425 -0.00213099 2.37653e-05 0.00119905 -1.3508e-06 0.00474104)
(0.0218058 -0.00213713 2.37051e-05 0.0012096 -1.34762e-06 0.00475237)
(0.0217689 -0.0021433 2.36446e-05 0.0012202 -1.34443e-06 0.00476376)
(0.0217319 -0.0021495 2.35838e-05 0.00123086 -1.34121e-06 0.00477519)
(0.0216946 -0.00215573 2.35227e-05 0.00124156 -1.33799e-06 0.00478668)
(0.0216572 -0.00216199 2.34614e-05 0.00125232 -1.33474e-06 0.00479823)
(0.0216197 -0.00216828 2.33997e-05 0.00126312 -1.33149e-06 0.00480982)
(0.0215819 -0.0021746 2.33378e-05 0.00127398 -1.32821e-06 0.00482148)
(0.021544 -0.00218095 2.32756e-05 0.00128488 -1.32492e-06 0.00483319)
(0.0215015 -0.00218638 2.3206e-05 0.00129558 -1.32004e-06 0.00484343)
(0.0214588 -0.00219183 2.31361e-05 0.00130632 -1.31514e-06 0.00485371)
(0.0214159 -0.00219731 2.30659e-05 0.00131711 -1.31021e-06 0.00486405)
(0.0213728 -0.00220282 2.29954e-05 0.00132795 -1.30526e-06 0.00487444)
(0.0213295 -0.00220835 2.29245e-05 0.00133885 -1.30029e-06 0.00488487)
(0.021286 -0.00221391 2.28533e-05 0.00134979 -1.29529e-06 0.00489535)
(0.0212423 -0.00221949 2.27817e-05 0.00136079 -1.29027e-06 0.00490588)
(0.0211984 -0.0022251 2.27098e-05 0.00137184 -1.28523e-06 0.00491647)
(0.0211543 -0.00223074 2.26376e-05 0.00138294 -1.28016e-06 0.0049271)
(0.02111 -0.0022364 2.25651e-05 0.00139409 -1.27507e-06 0.00493778)
(0.0210644 -0.00224175 2.24914e-05 0.00140515 -1.26934e-06 0.00494793)
(0.0210168 -0.00224659 2.24161e-05 0.00141606 -1.26266e-06 0.00495724)
(0.0209691 -0.00225146 2.23406e-05 0.00142701 -1.25595e-06 0.00496659)
(0.0209211 -0.00225636 2.22646e-05 0.00143802 -1.2492e-06 0.00497598)
(0.0208729 -0.00226127 2.21883e-05 0.00144908 -1.24242e-06 0.00498542)
(0.0208245 -0.00226621 2.21117e-05 0.00146019 -1.23561e-06 0.00499491)
(0.0207758 -0.00227117 2.20346e-05 0.00147136 -1.22877e-06 0.00500444)
(0.020727 -0.00227616 2.19573e-05 0.00148257 -1.2219e-06 0.00501401)
(0.0206779 -0.00228117 2.18795e-05 0.00149384 -1.21499e-06 0.00502363)
(0.0206285 -0.0022862 2.18014e-05 0.00150516 -1.20806e-06 0.00503329)
(0.020579 -0.00229125 2.1723e-05 0.00151653 -1.20108e-06 0.005043)
(0.0205277 -0.00229554 2.16482e-05 0.00152753 -1.19275e-06 0.00505135)
(0.0204763 -0.00229985 2.15731e-05 0.00153857 -1.18439e-06 0.00505974)
(0.0204246 -0.00230418 2.14976e-05 0.00154967 -1.17598e-06 0.00506817)
(0.0203727 -0.00230853 2.14218e-05 0.00156082 -1.16754e-06 0.00507664)
(0.0203205 -0.0023129 2.13456e-05 0.00157203 -1.15905e-06 0.00508515)
(0.0202681 -0.00231729 2.1269e-05 0.00158328 -1.15053e-06 0.0050937)
(0.0202154 -0.00232171 2.11921e-05 0.00159459 -1.14196e-06 0.00510229)
(0.0201625 -0.00232614 2.11148e-05 0.00160595 -1.13336e-06 0.00511092)
(0.0201094 -0.00233059 2.10372e-05 0.00161737 -1.12471e-06 0.00511959)
(0.0200559 -0.00233507 2.09592e-05 0.00162884 -1.11602e-06 0.00512831)
(0.0200021 -0.00233899 2.08887e-05 0.00163995 -1.10655e-06 0.00513598)
(0.019948 -0.00234279 2.08199e-05 0.00165102 -1.09686e-06 0.00514345)
(0.0198936 -0.0023466 2.07507e-05 0.00166214 -1.08713e-06 0.00515095)
(0.019839 -0.00235044 2.06811e-05 0.00167331 -1.07735e-06 0.00515848)
(0.0197841 -0.00235429 2.06113e-05 0.00168453 -1.06752e-06 0.00516605)
(0.0197289 -0.00235817 2.05411e-05 0.00169581 -1.05765e-06 0.00517366)
(0.0196735 -0.00236206 2.04705e-05 0.00170714 -1.04773e-06 0.0051813)
(0.0196178 -0.00236597 2.03997e-05 0.00171852 -1.03777e-06 0.00518898)
(0.0195619 -0.00236989 2.03285e-05 0.00172996 -1.02775e-06 0.0051967)
(0.0195057 -0.00237384 2.02569e-05 0.00174145 -1.01769e-06 0.00520445)
(0.0194499 -0.00237727 2.0196e-05 0.00175252 -1.00721e-06 0.00521122)
(0.0193939 -0.00238061 2.01372e-05 0.00176355 -9.96597e-07 0.0052178)
(0.0193377 -0.00238396 2.00782e-05 0.00177462 -9.85931e-07 0.00522442)