/*--------------------------------*- C++ -*----------------------------------*\
| =========                 |                                                 |
| \\      /  F ield         | OpenFOAM: The Open Source CFD Toolbox           |
|  \\    /   O peration     | Version:  v1806                                 |
|   \\  /    A nd           | Web:      www.OpenFOAM.com                      |
|    \\/     M anipulation  |                                                 |
\*---------------------------------------------------------------------------*/
FoamFile
{
    version     2.0;
    format      ascii;
    class       volVectorField;
    location    "10000";
    object      U_DNS;
}
// * * * * * * * * * * * * * * * * * * * * * * * * * * * * * * * * * * * * * //

dimensions      [0 1 -1 0 0 0 0];


internalField   nonuniform List<vector> 
1025
(
(0.000569038 0 3.09147e-07)
(0.00170976 0 9.28895e-07)
(0.00285579 0 1.55157e-06)
(0.0040072 0 2.17717e-06)
(0.00516394 0 2.80571e-06)
(0.00632609 0 3.43722e-06)
(0.00749371 0 4.07171e-06)
(0.00866674 0 4.70918e-06)
(0.0098452 0 5.34967e-06)
(0.0110292 0 5.99317e-06)
(0.0122188 0 6.63969e-06)
(0.0134139 0 7.28927e-06)
(0.0146144 0 7.94192e-06)
(0.0158206 0 8.59764e-06)
(0.0170325 0 9.25645e-06)
(0.01825 0 9.91836e-06)
(0.0194733 0 1.05834e-05)
(0.0207023 0 1.12515e-05)
(0.0219367 0 1.19229e-05)
(0.0231769 0 1.25973e-05)
(0.0244229 0 1.3275e-05)
(0.0256748 0 1.39558e-05)
(0.0269326 0 1.46398e-05)
(0.0281963 0 1.53271e-05)
(0.029466 0 1.60176e-05)
(0.0307412 0 1.67113e-05)
(0.0320221 0 1.74083e-05)
(0.0333091 0 1.81085e-05)
(0.0346022 0 1.8812e-05)
(0.0359013 0 1.95188e-05)
(0.0372066 0 2.0229e-05)
(0.0385179 0 2.09425e-05)
(0.0398355 0 2.16593e-05)
(0.0411592 0 2.23796e-05)
(0.0424881 0 2.3103e-05)
(0.0438233 0 2.38297e-05)
(0.0451646 0 2.45599e-05)
(0.0465123 0 2.52935e-05)
(0.0478664 0 2.60306e-05)
(0.0492269 0 2.67711e-05)
(0.0505937 0 2.75151e-05)
(0.051967 0 2.82627e-05)
(0.0533468 0 2.90137e-05)
(0.0547324 0 2.97681e-05)
(0.0561233 0 3.05255e-05)
(0.0575207 0 3.12865e-05)
(0.0589248 0 3.20511e-05)
(0.0603354 0 3.28193e-05)
(0.0617526 0 3.3591e-05)
(0.0631765 0 3.43665e-05)
(0.0646073 0 3.51456e-05)
(0.0660446 0 3.59283e-05)
(0.0674887 0 3.67147e-05)
(0.0689396 0 3.75048e-05)
(0.0703955 0 3.82977e-05)
(0.071857 0 3.90938e-05)
(0.0733253 0 3.98936e-05)
(0.0748005 0 4.06971e-05)
(0.0762825 0 4.15044e-05)
(0.0777716 0 4.23155e-05)
(0.0792677 0 4.31304e-05)
(0.0807709 0 4.39492e-05)
(0.0822811 0 4.47718e-05)
(0.0837984 0 4.55982e-05)
(0.0853228 0 4.64286e-05)
(0.0868545 0 4.72629e-05)
(0.0883881 0 4.80982e-05)
(0.0899286 0 4.89373e-05)
(0.0914765 0 4.97804e-05)
(0.0930317 0 5.06274e-05)
(0.0945942 0 5.14785e-05)
(0.0961641 0 5.23335e-05)
(0.0977412 0 5.31926e-05)
(0.099326 0 5.40557e-05)
(0.100918 0 5.49229e-05)
(0.102518 0 5.57941e-05)
(0.104125 0 5.66694e-05)
(0.10574 0 5.75489e-05)
(0.107355 0 5.84287e-05)
(0.108976 0 5.93112e-05)
(0.110605 0 6.01978e-05)
(0.112241 0 6.10886e-05)
(0.113885 0 6.19836e-05)
(0.115537 0 6.28827e-05)
(0.117197 0 6.37862e-05)
(0.118864 0 6.46939e-05)
(0.120539 0 6.56058e-05)
(0.122222 0 6.6522e-05)
(0.123913 0 6.74426e-05)
(0.125612 0 6.83675e-05)
(0.127319 0 6.92967e-05)
(0.12902 0 7.02219e-05)
(0.130729 0 7.11512e-05)
(0.132445 0 7.20849e-05)
(0.13417 0 7.30229e-05)
(0.135904 0 7.39655e-05)
(0.137645 0 7.49124e-05)
(0.139394 0 7.58638e-05)
(0.141152 0 7.68197e-05)
(0.142918 0 7.77801e-05)
(0.144692 0 7.87449e-05)
(0.146474 0 7.97143e-05)
(0.148265 0 8.06883e-05)
(0.150065 0 8.16669e-05)
(0.151855 0 8.26391e-05)
(0.15365 0 8.36135e-05)
(0.155453 0 8.45925e-05)
(0.157264 0 8.55762e-05)
(0.159085 0 8.65645e-05)
(0.160913 0 8.75573e-05)
(0.162751 0 8.8555e-05)
(0.164597 0 8.95572e-05)
(0.166451 0 9.05642e-05)
(0.168315 0 9.15759e-05)
(0.170187 0 9.25924e-05)
(0.172068 0 9.36137e-05)
(0.173958 0 9.46398e-05)
(0.175843 0 9.56628e-05)
(0.177719 0 9.6679e-05)
(0.179604 0 9.77001e-05)
(0.181498 0 9.87259e-05)
(0.1834 0 9.97566e-05)
(0.185312 0 0.000100792)
(0.187233 0 0.000101833)
(0.189162 0 0.000102878)
(0.191101 0 0.000103928)
(0.193049 0 0.000104983)
(0.195006 0 0.000106043)
(0.196972 0 0.000107109)
(0.198948 0 0.000108179)
(0.200932 0 0.000109254)
(0.20289 0 0.000110312)
(0.204849 0 0.00011137)
(0.206817 0 0.000112433)
(0.208795 0 0.000113501)
(0.210781 0 0.000114574)
(0.212777 0 0.000115652)
(0.214783 0 0.000116736)
(0.216798 0 0.000117824)
(0.218822 0 0.000118917)
(0.220856 0 0.000120016)
(0.222899 0 0.00012112)
(0.224952 0 0.000122229)
(0.227015 0 0.000123343)
(0.229081 0 0.000124458)
(0.231103 0 0.000125546)
(0.233135 0 0.000126639)
(0.235176 0 0.000127738)
(0.237227 0 0.000128842)
(0.239288 0 0.00012995)
(0.241358 0 0.000131064)
(0.243438 0 0.000132184)
(0.245528 0 0.000133308)
(0.247628 0 0.000134438)
(0.249737 0 0.000135574)
(0.251857 0 0.000136714)
(0.253986 0 0.00013786)
(0.256126 0 0.000139011)
(0.258244 0 0.000140149)
(0.260326 0 0.000141264)
(0.262418 0 0.000142384)
(0.26452 0 0.00014351)
(0.266631 0 0.000144641)
(0.268753 0 0.000145777)
(0.270884 0 0.000146918)
(0.273026 0 0.000148065)
(0.275177 0 0.000149217)
(0.277339 0 0.000150375)
(0.279511 0 0.000151538)
(0.281692 0 0.000152706)
(0.283884 0 0.00015388)
(0.286088 0 0.00015506)
(0.288234 0 0.000156204)
(0.29036 0 0.000157335)
(0.292495 0 0.000158472)
(0.294642 0 0.000159615)
(0.296799 0 0.000160762)
(0.298965 0 0.000161915)
(0.301143 0 0.000163074)
(0.30333 0 0.000164238)
(0.305527 0 0.000165407)
(0.307734 0 0.000166582)
(0.309952 0 0.000167762)
(0.312181 0 0.000168948)
(0.31442 0 0.000170139)
(0.316659 0 0.00017133)
(0.318804 0 0.000172462)
(0.320958 0 0.000173598)
(0.323121 0 0.00017474)
(0.325294 0 0.000175887)
(0.32748 0 0.00017704)
(0.329674 0 0.000178198)
(0.331879 0 0.000179362)
(0.334095 0 0.000180531)
(0.336321 0 0.000181706)
(0.338557 0 0.000182886)
(0.340804 0 0.000184072)
(0.343061 0 0.000185263)
(0.345329 0 0.00018646)
(0.347528 0 0.000187613)
(0.349682 0 0.000188737)
(0.351844 0 0.000189866)
(0.354018 0 0.000191)
(0.356203 0 0.000192141)
(0.358398 0 0.000193286)
(0.360603 0 0.000194437)
(0.362818 0 0.000195593)
(0.365044 0 0.000196755)
(0.36728 0 0.000197922)
(0.369527 0 0.000199095)
(0.371785 0 0.000200273)
(0.374053 0 0.000201457)
(0.376294 0 0.000202623)
(0.37843 0 0.000203722)
(0.380577 0 0.000204827)
(0.382734 0 0.000205937)
(0.3849 0 0.000207051)
(0.387077 0 0.000208171)
(0.389264 0 0.000209297)
(0.391461 0 0.000210427)
(0.39367 0 0.000211564)
(0.395888 0 0.000212705)
(0.398116 0 0.000213852)
(0.400356 0 0.000215004)
(0.402605 0 0.000216161)
(0.404856 0 0.000217318)
(0.40696 0 0.000218382)
(0.409073 0 0.00021945)
(0.411197 0 0.000220523)
(0.413331 0 0.000221602)
(0.415474 0 0.000222685)
(0.417627 0 0.000223773)
(0.419791 0 0.000224867)
(0.421966 0 0.000225966)
(0.42415 0 0.00022707)
(0.426344 0 0.000228179)
(0.428548 0 0.000229293)
(0.430764 0 0.000230412)
(0.432978 0 0.00023153)
(0.435036 0 0.000232547)
(0.437103 0 0.000233569)
(0.43918 0 0.000234596)
(0.441266 0 0.000235627)
(0.443363 0 0.000236664)
(0.445469 0 0.000237705)
(0.447585 0 0.000238751)
(0.449712 0 0.000239802)
(0.451848 0 0.000240858)
(0.453994 0 0.000241919)
(0.45615 0 0.000242985)
(0.458317 0 0.000244056)
(0.460444 0 0.0002451)
(0.462444 0 0.000246063)
(0.464453 0 0.00024703)
(0.466473 0 0.000248002)
(0.468503 0 0.000248979)
(0.470541 0 0.00024996)
(0.472589 0 0.000250945)
(0.474646 0 0.000251935)
(0.476713 0 0.00025293)
(0.47879 0 0.000253929)
(0.480877 0 0.000254934)
(0.482974 0 0.000255943)
(0.485081 0 0.000256957)
(0.487066 0 0.000257892)
(0.489001 0 0.000258793)
(0.490945 0 0.000259699)
(0.492899 0 0.000260609)
(0.494862 0 0.000261523)
(0.496833 0 0.000262442)
(0.498815 0 0.000263365)
(0.500805 0 0.000264292)
(0.502806 0 0.000265223)
(0.504814 0 0.000266159)
(0.506833 0 0.000267099)
(0.508861 0 0.000268044)
(0.510838 0 0.000268954)
(0.512693 0 0.000269785)
(0.514558 0 0.000270619)
(0.516432 0 0.000271458)
(0.518314 0 0.0002723)
(0.520205 0 0.000273147)
(0.522106 0 0.000273997)
(0.524015 0 0.000274852)
(0.525933 0 0.00027571)
(0.527859 0 0.000276572)
(0.529796 0 0.000277439)
(0.531741 0 0.000278309)
(0.533662 0 0.000279162)
(0.535436 0 0.000279918)
(0.537219 0 0.000280677)
(0.53901 0 0.00028144)
(0.540809 0 0.000282207)
(0.542618 0 0.000282977)
(0.544434 0 0.000283751)
(0.546259 0 0.000284528)
(0.548093 0 0.000285309)
(0.549936 0 0.000286094)
(0.551787 0 0.000286882)
(0.553647 0 0.000287675)
(0.555467 0 0.000288439)
(0.55716 0 0.000289117)
(0.558861 0 0.000289798)
(0.56057 0 0.000290482)
(0.562287 0 0.00029117)
(0.564011 0 0.00029186)
(0.565744 0 0.000292554)
(0.567485 0 0.000293252)
(0.569235 0 0.000293952)
(0.570992 0 0.000294656)
(0.572758 0 0.000295363)
(0.574532 0 0.000296073)
(0.576214 0 0.00029672)
(0.577827 0 0.000297317)
(0.579447 0 0.000297917)
(0.581075 0 0.000298519)
(0.58271 0 0.000299125)
(0.584354 0 0.000299733)
(0.586005 0 0.000300344)
(0.587664 0 0.000300958)
(0.58933 0 0.000301575)
(0.591004 0 0.000302195)
(0.592687 0 0.000302818)
(0.594361 0 0.000303432)
(0.595889 0 0.000303942)
(0.597424 0 0.000304454)
(0.598967 0 0.000304968)
(0.600517 0 0.000305485)
(0.602074 0 0.000306004)
(0.603638 0 0.000306526)
(0.60521 0 0.00030705)
(0.606789 0 0.000307577)
(0.608376 0 0.000308106)
(0.60997 0 0.000308638)
(0.611571 0 0.000309172)
(0.613044 0 0.000309607)
(0.6145 0 0.000310025)
(0.615961 0 0.000310446)
(0.61743 0 0.000310868)
(0.618906 0 0.000311293)
(0.620388 0 0.000311719)
(0.621878 0 0.000312147)
(0.623374 0 0.000312578)
(0.624878 0 0.00031301)
(0.626388 0 0.000313445)
(0.627906 0 0.000313881)
(0.629307 0 0.00031422)
(0.630687 0 0.000314537)
(0.632073 0 0.000314856)
(0.633465 0 0.000315176)
(0.634864 0 0.000315498)
(0.63627 0 0.000315822)
(0.637682 0 0.000316147)
(0.639101 0 0.000316473)
(0.640527 0 0.000316801)
(0.641959 0 0.000317131)
(0.643398 0 0.000317462)
(0.644702 0 0.000317671)
(0.646011 0 0.000317881)
(0.647327 0 0.000318092)
(0.648649 0 0.000318304)
(0.649977 0 0.000318517)
(0.651311 0 0.000318731)
(0.652651 0 0.000318946)
(0.653998 0 0.000319163)
(0.655351 0 0.00031938)
(0.656711 0 0.000319598)
(0.658024 0 0.00031977)
(0.659263 0 0.000319873)
(0.660507 0 0.000319976)
(0.661758 0 0.00032008)
(0.663014 0 0.000320184)
(0.664277 0 0.000320288)
(0.665545 0 0.000320393)
(0.666819 0 0.000320499)
(0.668099 0 0.000320605)
(0.669386 0 0.000320712)
(0.670677 0 0.000320818)
(0.671852 0 0.000320826)
(0.673031 0 0.000320833)
(0.674216 0 0.00032084)
(0.675407 0 0.000320847)
(0.676604 0 0.000320854)
(0.677806 0 0.000320862)
(0.679014 0 0.000320869)
(0.680227 0 0.000320877)
(0.681446 0 0.000320884)
(0.682671 0 0.000320891)
(0.683808 0 0.000320841)
(0.684928 0 0.000320777)
(0.686054 0 0.000320713)
(0.687185 0 0.000320649)
(0.688321 0 0.000320584)
(0.689463 0 0.000320519)
(0.69061 0 0.000320454)
(0.691762 0 0.000320388)
(0.69292 0 0.000320322)
(0.694084 0 0.000320256)
(0.695165 0 0.000320164)
(0.696231 0 0.000320066)
(0.697303 0 0.000319968)
(0.698379 0 0.00031987)
(0.699461 0 0.000319771)
(0.700548 0 0.000319671)
(0.70164 0 0.000319571)
(0.702737 0 0.000319471)
(0.703839 0 0.00031937)
(0.704945 0 0.000319269)
(0.705958 0 0.000319182)
(0.706976 0 0.000319095)
(0.707999 0 0.000319007)
(0.709026 0 0.000318919)
(0.710059 0 0.000318831)
(0.711096 0 0.000318742)
(0.712138 0 0.000318653)
(0.713185 0 0.000318563)
(0.714237 0 0.000318473)
(0.715257 0 0.000318404)
(0.716226 0 0.000318365)
(0.7172 0 0.000318327)
(0.718179 0 0.000318288)
(0.719162 0 0.00031825)
(0.72015 0 0.000318211)
(0.721143 0 0.000318172)
(0.72214 0 0.000318132)
(0.723142 0 0.000318093)
(0.724149 0 0.000318053)
(0.725077 0 0.000318079)
(0.726008 0 0.000318106)
(0.726943 0 0.000318133)
(0.727882 0 0.000318161)
(0.728826 0 0.000318189)
(0.729774 0 0.000318217)
(0.730727 0 0.000318245)
(0.731684 0 0.000318273)
(0.732646 0 0.000318301)
(0.733555 0 0.000318368)
(0.734446 0 0.00031845)
(0.735342 0 0.000318532)
(0.736242 0 0.000318615)
(0.737146 0 0.000318698)
(0.738055 0 0.000318782)
(0.738968 0 0.000318865)
(0.739885 0 0.00031895)
(0.740806 0 0.000319034)
(0.741685 0 0.000319136)
(0.742541 0 0.000319246)
(0.743402 0 0.000319357)
(0.744267 0 0.000319469)
(0.745137 0 0.000319581)
(0.74601 0 0.000319694)
(0.746887 0 0.000319807)
(0.747768 0 0.00031992)
(0.748654 0 0.000320035)
(0.749494 0 0.000320149)
(0.75032 0 0.000320264)
(0.75115 0 0.000320379)
(0.751984 0 0.000320495)
(0.752822 0 0.000320611)
(0.753664 0 0.000320728)
(0.75451 0 0.000320846)
(0.75536 0 0.000320964)
(0.756213 0 0.000321082)
(0.757009 0 0.000321182)
(0.757808 0 0.000321283)
(0.758611 0 0.000321384)
(0.759418 0 0.000321485)
(0.760228 0 0.000321587)
(0.761043 0 0.000321689)
(0.761861 0 0.000321792)
(0.762683 0 0.000321896)
(0.763485 0 0.000321986)
(0.764257 0 0.000322058)
(0.765032 0 0.000322131)
(0.765812 0 0.000322203)
(0.766594 0 0.000322276)
(0.767381 0 0.00032235)
(0.768171 0 0.000322424)
(0.768965 0 0.000322498)
(0.769763 0 0.000322572)
(0.770512 0 0.000322613)
(0.771263 0 0.000322653)
(0.772018 0 0.000322694)
(0.772777 0 0.000322734)
(0.773539 0 0.000322775)
(0.774305 0 0.000322816)
(0.775074 0 0.000322857)
(0.775847 0 0.000322899)
(0.776589 0 0.000322923)
(0.77732 0 0.000322939)
(0.778054 0 0.000322956)
(0.778791 0 0.000322973)
(0.779533 0 0.00032299)
(0.780277 0 0.000323007)
(0.781025 0 0.000323024)
(0.781777 0 0.000323041)
(0.782505 0 0.000323054)
(0.783218 0 0.000323063)
(0.783934 0 0.000323073)
(0.784654 0 0.000323083)
(0.785377 0 0.000323093)
(0.786103 0 0.000323103)
(0.786833 0 0.000323113)
(0.787566 0 0.000323123)
(0.788277 0 0.00032314)
(0.788975 0 0.000323161)
(0.789676 0 0.000323183)
(0.79038 0 0.000323204)
(0.791087 0 0.000323226)
(0.791798 0 0.000323247)
(0.792512 0 0.000323269)
(0.793229 0 0.000323291)
(0.793921 0 0.000323336)
(0.794606 0 0.000323389)
(0.795294 0 0.000323443)
(0.795985 0 0.000323497)
(0.796679 0 0.000323551)
(0.797377 0 0.000323605)
(0.798078 0 0.00032366)
(0.798781 0 0.000323716)
(0.799452 0 0.000323824)
(0.800126 0 0.000323933)
(0.800803 0 0.000324042)
(0.801483 0 0.000324152)
(0.802167 0 0.000324262)
(0.802854 0 0.000324373)
(0.803544 0 0.000324484)
(0.804222 0 0.000324625)
(0.804884 0 0.000324802)
(0.80555 0 0.000324981)
(0.806218 0 0.00032516)
(0.80689 0 0.00032534)
(0.807565 0 0.000325521)
(0.808243 0 0.000325703)
(0.808924 0 0.000325886)
(0.809577 0 0.000326127)
(0.810232 0 0.000326371)
(0.810891 0 0.000326616)
(0.811552 0 0.000326862)
(0.812217 0 0.00032711)
(0.812885 0 0.000327358)
(0.813556 0 0.000327608)
(0.814211 0 0.000327871)
(0.814858 0 0.000328141)
(0.815509 0 0.000328414)
(0.816162 0 0.000328687)
(0.816819 0 0.000328961)
(0.817479 0 0.000329237)
(0.818141 0 0.000329515)
(0.818795 0 0.000329761)
(0.819436 0 0.000329967)
(0.82008 0 0.000330174)
(0.820727 0 0.000330382)
(0.821377 0 0.000330591)
(0.82203 0 0.000330801)
(0.822687 0 0.000331012)
(0.823337 0 0.000331163)
(0.823972 0 0.000331194)
(0.824612 0 0.000331225)
(0.825254 0 0.000331256)
(0.825899 0 0.000331288)
(0.826547 0 0.000331319)
(0.827198 0 0.000331351)
(0.827844 0 0.000331298)
(0.828476 0 0.00033109)
(0.829112 0 0.000330881)
(0.82975 0 0.000330671)
(0.830391 0 0.000330459)
(0.831036 0 0.000330247)
(0.831683 0 0.000330034)
(0.832322 0 0.000329709)
(0.832952 0 0.000329263)
(0.833586 0 0.000328814)
(0.834222 0 0.000328364)
(0.834861 0 0.000327911)
(0.835503 0 0.000327456)
(0.836148 0 0.000327)
(0.83678 0 0.000326398)
(0.837409 0 0.000325736)
(0.838041 0 0.000325071)
(0.838675 0 0.000324404)
(0.839313 0 0.000323733)
(0.839954 0 0.000323058)
(0.840596 0 0.000322371)
(0.841221 0 0.000321514)
(0.84185 0 0.000320652)
(0.842481 0 0.000319786)
(0.843115 0 0.000318916)
(0.843753 0 0.000318042)
(0.844393 0 0.000317164)
(0.845026 0 0.000316217)
(0.845652 0 0.000315198)
(0.846281 0 0.000314175)
(0.846913 0 0.000313148)
(0.847548 0 0.000312116)
(0.848186 0 0.000311078)
(0.848826 0 0.000310034)
(0.84945 0 0.000308947)
(0.850077 0 0.000307856)
(0.850707 0 0.000306759)
(0.85134 0 0.000305657)
(0.851976 0 0.000304549)
(0.852615 0 0.000303436)
(0.853244 0 0.000302366)
(0.85387 0 0.000301313)
(0.8545 0 0.000300255)
(0.855132 0 0.000299191)
(0.855768 0 0.000298123)
(0.856406 0 0.00029705)
(0.857039 0 0.000296026)
(0.857665 0 0.000295071)
(0.858294 0 0.000294112)
(0.858926 0 0.000293149)
(0.859561 0 0.00029218)
(0.860199 0 0.000291208)
(0.860835 0 0.000290255)
(0.861462 0 0.000289369)
(0.862092 0 0.000288479)
(0.862724 0 0.000287586)
(0.863359 0 0.000286688)
(0.863998 0 0.000285785)
(0.864637 0 0.000284885)
(0.865264 0 0.000284008)
(0.865894 0 0.000283127)
(0.866528 0 0.000282241)
(0.867164 0 0.000281352)
(0.867804 0 0.000280458)
(0.868444 0 0.000279562)
(0.869073 0 0.000278669)
(0.869705 0 0.000277771)
(0.87034 0 0.000276869)
(0.870978 0 0.000275963)
(0.871619 0 0.000275053)
(0.872259 0 0.000274149)
(0.872891 0 0.00027327)
(0.873525 0 0.000272387)
(0.874162 0 0.0002715)
(0.874803 0 0.000270609)
(0.875446 0 0.000269714)
(0.876086 0 0.000268872)
(0.87672 0 0.000268104)
(0.877357 0 0.000267332)
(0.877997 0 0.000266557)
(0.878639 0 0.000265779)
(0.879285 0 0.000264996)
(0.879924 0 0.000264381)
(0.880562 0 0.000263843)
(0.881202 0 0.000263302)
(0.881845 0 0.000262759)
(0.882491 0 0.000262214)
(0.88314 0 0.000261671)
(0.883778 0 0.000261462)
(0.884419 0 0.000261251)
(0.885063 0 0.00026104)
(0.88571 0 0.000260827)
(0.88636 0 0.000260614)
(0.887007 0 0.00026055)
(0.887649 0 0.000260688)
(0.888295 0 0.000260828)
(0.888942 0 0.000260967)
(0.889593 0 0.000261108)
(0.890248 0 0.000261249)
(0.890893 0 0.00026163)
(0.89154 0 0.000262034)
(0.89219 0 0.000262441)
(0.892842 0 0.00026285)
(0.893498 0 0.00026326)
(0.894151 0 0.000263717)
(0.8948 0 0.000264225)
(0.895452 0 0.000264736)
(0.896107 0 0.000265249)
(0.896765 0 0.000265765)
(0.897425 0 0.000266275)
(0.898076 0 0.000266725)
(0.89873 0 0.000267178)
(0.899387 0 0.000267632)
(0.900048 0 0.000268089)
(0.900711 0 0.000268548)
(0.901367 0 0.000268896)
(0.902024 0 0.00026922)
(0.902683 0 0.000269545)
(0.903346 0 0.000269872)
(0.904013 0 0.000270201)
(0.904674 0 0.000270446)
(0.905334 0 0.000270632)
(0.905996 0 0.00027082)
(0.906662 0 0.000271008)
(0.90733 0 0.000271197)
(0.907997 0 0.000271311)
(0.908659 0 0.000271325)
(0.909325 0 0.000271339)
(0.909993 0 0.000271354)
(0.910664 0 0.000271368)
(0.911335 0 0.000271291)
(0.912 0 0.000271033)
(0.912668 0 0.000270774)
(0.91334 0 0.000270513)
(0.914014 0 0.000270251)
(0.914688 0 0.000269868)
(0.915356 0 0.00026921)
(0.916027 0 0.00026855)
(0.916701 0 0.000267886)
(0.917379 0 0.000267219)
(0.918056 0 0.00026639)
(0.918727 0 0.000265254)
(0.919401 0 0.000264112)
(0.920079 0 0.000262965)
(0.92076 0 0.000261812)
(0.921438 0 0.000260449)
(0.922113 0 0.000258818)
(0.922791 0 0.00025718)
(0.923472 0 0.000255535)
(0.924156 0 0.000253882)
(0.924836 0 0.000251946)
(0.925515 0 0.000249816)
(0.926196 0 0.000247675)
(0.926881 0 0.000245525)
(0.927569 0 0.000243365)
(0.92825 0 0.000240815)
(0.928933 0 0.000238167)
(0.929618 0 0.000235506)
(0.930307 0 0.000232832)
(0.930998 0 0.000230102)
(0.931681 0 0.000226936)
(0.932368 0 0.000223753)
(0.933058 0 0.000220556)
(0.933751 0 0.000217344)
(0.934442 0 0.000213932)
(0.93513 0 0.000210254)
(0.935821 0 0.000206559)
(0.936515 0 0.000202848)
(0.937213 0 0.00019912)
(0.937904 0 0.000195077)
(0.938596 0 0.000190948)
(0.939292 0 0.000186798)
(0.939991 0 0.000182629)
(0.94069 0 0.000178355)
(0.941384 0 0.000173813)
(0.942081 0 0.00016925)
(0.942782 0 0.000164666)
(0.943485 0 0.000160061)
(0.944184 0 0.000155182)
(0.944882 0 0.0001502)
(0.945585 0 0.000145194)
(0.94629 0 0.000140165)
(0.946995 0 0.000135022)
(0.947696 0 0.00012965)
(0.948399 0 0.000124253)
(0.949107 0 0.000118829)
(0.949817 0 0.000113379)
(0.950521 0 0.000107706)
(0.951227 0 0.000101986)
(0.951936 0 9.62366e-05)
(0.952649 0 9.04612e-05)
(0.953358 0 8.45888e-05)
(0.954067 0 7.86329e-05)
(0.954778 0 7.26502e-05)
(0.955493 0 6.66406e-05)
(0.956209 0 6.05898e-05)
(0.95692 0 5.44822e-05)
(0.957634 0 4.83476e-05)
(0.958352 0 4.2186e-05)
(0.959072 0 3.59962e-05)
(0.959786 0 2.98286e-05)
(0.960503 0 2.3632e-05)
(0.961224 0 1.74064e-05)
(0.961948 0 1.11519e-05)
(0.962667 0 4.99589e-06)
(0.963387 0 -1.16208e-06)
(0.96411 0 -7.34831e-06)
(0.964837 0 -1.35628e-05)
(0.965561 0 -1.95742e-05)
(0.966284 0 -2.54973e-05)
(0.967011 0 -3.14491e-05)
(0.967741 0 -3.74276e-05)
(0.968469 0 -4.31082e-05)
(0.969195 0 -4.85539e-05)
(0.969926 0 -5.40256e-05)
(0.970659 0 -5.95232e-05)
(0.971391 0 -6.4701e-05)
(0.972121 0 -6.95492e-05)
(0.972854 0 -7.44215e-05)
(0.973591 0 -7.93166e-05)
(0.974326 0 -8.39183e-05)
(0.97506 0 -8.8193e-05)
(0.975797 0 -9.24873e-05)
(0.976537 0 -9.68011e-05)
(0.977276 0 -0.000100796)
(0.978013 0 -0.000104469)
(0.978753 0 -0.000108161)
(0.979497 0 -0.00011187)
(0.980238 0 -0.000115152)
(0.980979 0 -0.000118116)
(0.981723 0 -0.000121094)
(0.982471 0 -0.000124086)
(0.983214 0 -0.000126558)
(0.983958 0 -0.000128792)
(0.984706 0 -0.000131036)
(0.985457 0 -0.000133291)
(0.986203 0 -0.000134982)
(0.986951 0 -0.000136565)
(0.987702 0 -0.000138156)
(0.988457 0 -0.000139742)
(0.989205 0 -0.000140855)
(0.989957 0 -0.000141972)
(0.990712 0 -0.000143095)
(0.991468 0 -0.000144163)
(0.992221 0 -0.000145065)
(0.992977 0 -0.000145972)
(0.993737 0 -0.000146882)
(0.994495 0 -0.000147792)
(0.995253 0 -0.000148702)
(0.996014 0 -0.000149617)
(0.996778 0 -0.000150536)
(0.997537 0 -0.00015161)
(0.998299 0 -0.000152717)
(0.999064 0 -0.00015383)
(0.999831 0 -0.000155011)
(1.00059 0 -0.000156464)
(1.00136 0 -0.000157923)
(1.00213 0 -0.00015939)
(1.0029 0 -0.000161051)
(1.00366 0 -0.000162858)
(1.00443 0 -0.000164673)
(1.00521 0 -0.000166497)
(1.00597 0 -0.00016845)
(1.00674 0 -0.000170413)
(1.00752 0 -0.000172385)
(1.00829 0 -0.000174326)
(1.00906 0 -0.000176228)
(1.00984 0 -0.000178139)
(1.01061 0 -0.000180059)
(1.01138 0 -0.000181835)
(1.01216 0 -0.000183612)
(1.01294 0 -0.000185398)
(1.01371 0 -0.000187132)
(1.01449 0 -0.000188812)
(1.01527 0 -0.000190499)
(1.01605 0 -0.000192193)
(1.01683 0 -0.000193877)
(1.01761 0 -0.000195568)
(1.01839 0 -0.000197267)
(1.01917 0 -0.000199027)
(1.01995 0 -0.000200821)
(1.02074 0 -0.000202624)
(1.02152 0 -0.000204476)
(1.02231 0 -0.000206438)
(1.02309 0 -0.000208409)
(1.02388 0 -0.000210389)
(1.02467 0 -0.000212555)
(1.02545 0 -0.000214738)
(1.02624 0 -0.000216933)
(1.02703 0 -0.000219251)
(1.02782 0 -0.000221639)
(1.02861 0 -0.000224039)
(1.02941 0 -0.00022651)
(1.0302 0 -0.00022909)
(1.03099 0 -0.000231682)
(1.03179 0 -0.000234302)
(1.03258 0 -0.000237022)
(1.03337 0 -0.000239755)
(1.03417 0 -0.000242502)
(1.03496 0 -0.000245151)
(1.03576 0 -0.000247807)
(1.03656 0 -0.000250475)
(1.03736 0 -0.000252913)
(1.03815 0 -0.00025529)
(1.03896 0 -0.000257679)
(1.03975 0 -0.000259859)
(1.04055 0 -0.000261918)
(1.04136 0 -0.000263987)
(1.04216 0 -0.000265883)
(1.04296 0 -0.000267613)
(1.04376 0 -0.000269351)
(1.04456 0 -0.00027089)
(1.04536 0 -0.000272155)
(1.04617 0 -0.000273426)
(1.04697 0 -0.000274416)
(1.04777 0 -0.000274919)
(1.04858 0 -0.000275423)
(1.04939 0 -0.000275559)
(1.05019 0 -0.000274974)
(1.05099 0 -0.000274387)
(1.0518 0 -0.000273384)
(1.0526 0 -0.000271577)
(1.05341 0 -0.000269761)
(1.05422 0 -0.000267542)
(1.05502 0 -0.000264638)
(1.05583 0 -0.00026172)
(1.05664 0 -0.000258428)
(1.05744 0 -0.00025463)
(1.05825 0 -0.000250815)
(1.05906 0 -0.000246675)
(1.05987 0 -0.000242218)
(1.06068 0 -0.000237739)
(1.06149 0 -0.000233063)
(1.06229 0 -0.000228257)
(1.06311 0 -0.000223428)
(1.06391 0 -0.00021858)
(1.06472 0 -0.000213712)
(1.06553 0 -0.000208821)
(1.06634 0 -0.000204081)
(1.06715 0 -0.000199336)
(1.06796 0 -0.000194595)
(1.06877 0 -0.000190055)
(1.06958 0 -0.000185494)
(1.07039 0 -0.000180985)
(1.07119 0 -0.000176612)
(1.072 0 -0.00017222)
(1.07281 0 -0.000167949)
(1.07362 0 -0.000163772)
(1.07443 0 -0.000159575)
(1.07523 0 -0.000155672)
(1.07604 0 -0.00015182)
(1.07685 0 -0.000148015)
(1.07765 0 -0.000144748)
(1.07846 0 -0.000141465)
(1.07926 0 -0.000138494)
(1.08006 0 -0.000135966)
(1.08087 0 -0.000133425)
(1.08167 0 -0.000131429)
(1.08248 0 -0.000129606)
(1.08328 0 -0.000127841)
(1.08408 0 -0.000126595)
(1.08488 0 -0.000125344)
(1.08568 0 -0.000124331)
(1.08648 0 -0.000123562)
(1.08728 0 -0.000122789)
(1.08807 0 -0.00012249)
(1.08887 0 -0.000122241)
(1.08967 0 -0.000122159)
(1.09046 0 -0.000122419)
(1.09125 0 -0.00012268)
(1.09204 0 -0.000123137)
(1.09283 0 -0.000123652)
(1.09362 0 -0.000124141)
(1.09441 0 -0.00012455)
(1.09519 0 -0.000124961)
(1.09598 0 -0.00012517)
(1.09676 0 -0.000125311)
(1.09754 0 -0.000125419)
(1.09832 0 -0.000125432)
(1.0991 0 -0.000125444)
(1.09987 0 -0.000125508)
(1.10064 0 -0.000125584)
(1.10141 0 -0.00012569)
(1.10218 0 -0.000125848)
(1.10295 0 -0.000126007)
(1.1037 0 -0.000126101)
(1.10447 0 -0.000126191)
(1.10522 0 -0.000126136)
(1.10598 0 -0.000125959)
(1.10673 0 -0.000125712)
(1.10747 0 -0.000125115)
(1.10822 0 -0.000124515)
(1.10896 0 -0.000123535)
(1.1097 0 -0.000122462)
(1.11043 0 -0.000121223)
(1.11116 0 -0.000119798)
(1.11189 0 -0.000118348)
(1.11261 0 -0.000116794)
(1.11333 0 -0.000115232)
(1.11404 0 -0.000113728)
(1.11476 0 -0.000112229)
(1.11546 0 -0.000110865)
(1.11616 0 -0.0001096)
(1.11686 0 -0.000108441)
(1.11754 0 -0.00010752)
(1.11823 0 -0.000106616)
(1.1189 0 -0.000105958)
(1.11958 0 -0.000105297)
(1.12024 0 -0.000104724)
(1.12091 0 -0.000104162)
(1.12156 0 -0.000103656)
(1.12221 0 -0.000103178)
(1.12285 0 -0.00010282)
(1.12348 0 -0.000102599)
(1.12411 0 -0.000102522)
(1.12473 0 -0.00010278)
(1.12534 0 -0.000103136)
(1.12595 0 -0.000104023)
(1.12655 0 -0.000104929)
(1.12713 0 -0.000106431)
(1.12772 0 -0.000107941)
(1.12829 0 -0.000109783)
(1.12886 0 -0.000111666)
(1.12941 0 -0.000113606)
(1.12996 0 -0.000115567)
(1.13049 0 -0.000117455)
(1.13102 0 -0.000119323)
(1.13154 0 -0.000121084)
(1.13204 0 -0.000122801)
(1.13254 0 -0.000124397)
(1.13302 0 -0.000125927)
(1.13349 0 -0.000127329)
(1.13396 0 -0.000128651)
(1.1344 0 -0.00012988)
(1.13484 0 -0.000131051)
(1.13527 0 -0.000132196)
(1.13568 0 -0.000133326)
(1.13608 0 -0.000134597)
(1.13648 0 -0.000135952)
(1.13685 0 -0.000137678)
(1.13722 0 -0.000139587)
(1.13757 0 -0.000141962)
(1.13791 0 -0.000144516)
(1.13823 0 -0.000147493)
(1.13854 0 -0.000150586)
(1.13883 0 -0.000154024)
(1.13912 0 -0.000157519)
(1.13938 0 -0.000161287)
(1.13963 0 -0.000165097)
(1.13986 0 -0.000169103)
(1.14008 0 -0.00017315)
(1.14028 0 -0.000177286)
(1.14047 0 -0.000181392)
(1.14064 0 -0.000185442)
(1.14079 0 -0.0001893)
(1.14093 0 -0.000193015)
(1.14105 0 -0.000196266)
(1.14115 0 -0.00019937)
(1.14123 0 -0.000201647)
(1.14129 0 -0.00020372)
(1.14133 0 -0.0002049)
(1.14135 0 -0.000205632)
)
;

boundaryField
{
    INLET
    {
        type            cyclic;
    }
    OUTLET
    {
        type            cyclic;
    }
    CENTER
    {
        type            symmetryPlane;
    }
    WALL
    {
        type            noSlip;
    }
    frontAndBackPlanes
    {
        type            empty;
    }
}


// ************************************************************************* //
